 Entering Gaussian System, Link 0=g16
 Input=Try1.gjf
 Output=D:\ZhangCang\Work\Try1.out
 Initial command:
 C:\G16W\l1.exe ".\Gau-6572.inp" "D:\ZhangCang\Work\Try1.out" /scrdir=".\"
 Entering Link 1 = C:\G16W\l1.exe PID=     15480.
  
 Copyright (c) 1988,1990,1992,1993,1995,1998,2003,2009,2016,
            Gaussian, Inc.  All Rights Reserved.
  
 This is part of the Gaussian(R) 16 program.  It is based on
 the Gaussian(R) 09 system (copyright 2009, Gaussian, Inc.),
 the Gaussian(R) 03 system (copyright 2003, Gaussian, Inc.),
 the Gaussian(R) 98 system (copyright 1998, Gaussian, Inc.),
 the Gaussian(R) 94 system (copyright 1995, Gaussian, Inc.),
 the Gaussian 92(TM) system (copyright 1992, Gaussian, Inc.),
 the Gaussian 90(TM) system (copyright 1990, Gaussian, Inc.),
 the Gaussian 88(TM) system (copyright 1988, Gaussian, Inc.),
 the Gaussian 86(TM) system (copyright 1986, Carnegie Mellon
 University), and the Gaussian 82(TM) system (copyright 1983,
 Carnegie Mellon University). Gaussian is a federally registered
 trademark of Gaussian, Inc.
  
 This software contains proprietary and confidential information,
 including trade secrets, belonging to Gaussian, Inc.
  
 This software is provided under written license and may be
 used, copied, transmitted, or stored only in accord with that
 written license.
  
 The following legend is applicable only to US Government
 contracts under FAR:
  
                    RESTRICTED RIGHTS LEGEND
  
 Use, reproduction and disclosure by the US Government is
 subject to restrictions as set forth in subparagraphs (a)
 and (c) of the Commercial Computer Software - Restricted
 Rights clause in FAR 52.227-19.
  
 Gaussian, Inc.
 340 Quinnipiac St., Bldg. 40, Wallingford CT 06492
  
  
 ---------------------------------------------------------------
 Warning -- This program may not be used in any manner that
 competes with the business of Gaussian, Inc. or will provide
 assistance to any competitor of Gaussian, Inc.  The licensee
 of this program is prohibited from giving any competitor of
 Gaussian, Inc. access to this program.  By using this program,
 the user acknowledges that Gaussian, Inc. is engaged in the
 business of creating and licensing software in the field of
 computational chemistry and represents and warrants to the
 licensee that it is not a competitor of Gaussian, Inc. and that
 it will not use this program in any manner prohibited above.
 ---------------------------------------------------------------
  

 Cite this work as:
 Gaussian 16, Revision A.03,
 M. J. Frisch, G. W. Trucks, H. B. Schlegel, G. E. Scuseria, 
 M. A. Robb, J. R. Cheeseman, G. Scalmani, V. Barone, 
 G. A. Petersson, H. Nakatsuji, X. Li, M. Caricato, A. V. Marenich, 
 J. Bloino, B. G. Janesko, R. Gomperts, B. Mennucci, H. P. Hratchian, 
 J. V. Ortiz, A. F. Izmaylov, J. L. Sonnenberg, D. Williams-Young, 
 F. Ding, F. Lipparini, F. Egidi, J. Goings, B. Peng, A. Petrone, 
 T. Henderson, D. Ranasinghe, V. G. Zakrzewski, J. Gao, N. Rega, 
 G. Zheng, W. Liang, M. Hada, M. Ehara, K. Toyota, R. Fukuda, 
 J. Hasegawa, M. Ishida, T. Nakajima, Y. Honda, O. Kitao, H. Nakai, 
 T. Vreven, K. Throssell, J. A. Montgomery, Jr., J. E. Peralta, 
 F. Ogliaro, M. J. Bearpark, J. J. Heyd, E. N. Brothers, K. N. Kudin, 
 V. N. Staroverov, T. A. Keith, R. Kobayashi, J. Normand, 
 K. Raghavachari, A. P. Rendell, J. C. Burant, S. S. Iyengar, 
 J. Tomasi, M. Cossi, J. M. Millam, M. Klene, C. Adamo, R. Cammi, 
 J. W. Ochterski, R. L. Martin, K. Morokuma, O. Farkas, 
 J. B. Foresman, and D. J. Fox, Gaussian, Inc., Wallingford CT, 2016.
 
 ******************************************
 Gaussian 16:  EM64W-G16RevA.03 17-Dec-2016
                04-Sep-2022 
 ******************************************
 %mem=1000MB
 %chk=LiuKun1.chk
 ------
 #p pm3
 ------
 1/38=1,172=1/1;
 2/12=2,17=6,18=5,40=1/2;
 3/5=2,25=1,41=800000/1,2,3;
 4/35=1/1;
 5/5=2,35=1,38=5/2;
 6/7=2,8=2,9=2,10=2,28=1/1;
 99/5=1,9=1/99;
 Leave Link    1 at Sun Sep 04 21:16:53 2022, MaxMem=   131072000 cpu:               0.0 elap:               0.0
 (Enter C:\G16W\l101.exe)
 --
 T1
 --
 Symbolic Z-matrix:
 Charge =  2 Multiplicity = 1
 C
 C                    1    B1
 C                    1    B2       2    A1
 N                    1    B3       2    A2       3    D1       0
 H                    1    B4       4    A3       3    D2       0
 H                    2    B5       1    A4       4    D3       0
 H                    3    B6       1    A5       4    D4       0
 C                    3    B7       1    A6       4    D5       0
 H                    8    B8       3    A7       1    D6       0
 H                    8    B9       3    A8       1    D7       0
 C                    8    B10      3    A9       1    D8       0
 H                    11   B11      8    A10      3    D9       0
 H                    11   B12      8    A11      3    D10      0
 N                    11   B13      8    A12      3    D11      0
 C                    14   B14      11   A13      8    D12      0
 C                    14   B15      11   A14      8    D13      0
 C                    15   B16      14   A15      11   D14      0
 H                    15   B17      14   A16      11   D15      0
 H                    16   B18      14   A17      11   D16      0
 H                    17   B19      15   A18      14   D17      0
 N                    3    B20      1    A19      4    D18      0
 N                    16   B21      14   A20      11   D19      0
 C                    4    B22      1    A21      2    D20      0
 H                    23   B23      4    A22      1    D21      0
 H                    23   B24      4    A23      1    D22      0
 H                    23   B25      4    A24      1    D23      0
 C                    22   B26      16   A25      14   D24      0
 H                    27   B27      22   A26      16   D25      0
 H                    27   B28      22   A27      16   D26      0
 H                    27   B29      22   A28      16   D27      0
       Variables:
  B1                    1.40175                  
  B2                    2.26329                  
  B3                    1.3918                   
  B4                    1.08927                  
  B5                    1.08482                  
  B6                    1.08923                  
  B7                    2.62707                  
  B8                    1.07                     
  B9                    1.07                     
  B10                   1.54                     
  B11                   1.07                     
  B12                   1.07                     
  B13                   1.47                     
  B14                   1.3918                   
  B15                   1.3918                   
  B16                   1.40175                  
  B17                   1.08927                  
  B18                   1.08923                  
  B19                   1.08482                  
  B20                   1.40185                  
  B21                   1.40185                  
  B22                   1.47                     
  B23                   1.07                     
  B24                   1.07                     
  B25                   1.07                     
  B26                   1.47                     
  B27                   1.07                     
  B28                   1.07                     
  B29                   1.07                     
  A1                   72.8154                   
  A2                  108.41767                  
  A3                  121.48471                  
  A4                  126.44075                  
  A5                  157.07629                  
  A6                  100.94831                  
  A7                  120.0221                   
  A8                   84.05073                  
  A9                  120.43021                  
  A10                 109.4712                   
  A11                 109.47123                  
  A12                 109.4712                   
  A13                 125.59659                  
  A14                 125.60777                  
  A15                 108.41767                  
  A16                 121.48471                  
  A17                 121.4742                   
  A18                 126.44075                  
  A19                  72.81159                  
  A20                 108.41368                  
  A21                 125.59659                  
  A22                 109.4712                   
  A23                 109.4712                   
  A24                 109.47123                  
  A25                 109.68083                  
  A26                 109.4712                   
  A27                 109.4712                   
  A28                 109.47123                  
  D1                   -0.00237                  
  D2                  179.99819                  
  D3                  179.99875                  
  D4                   -0.01667                  
  D5                  179.99493                  
  D6                   71.39577                  
  D7                 -179.52642                  
  D8                  -70.41129                  
  D9                   96.80842                  
  D10                 -23.19158                  
  D11                -143.19157                  
  D12                  97.43492                  
  D13                 -82.58752                  
  D14                 179.98461                  
  D15                  -0.02109                  
  D16                   0.01167                  
  D17                 179.99875                  
  D18                 179.99332                  
  D19                -179.98744                  
  D20                 179.98461                  
  D21                 -25.91237                  
  D22                  94.08764                  
  D23                -145.91237                  
  D24                -180.                       
  D25                -167.1924                   
  D26                 -47.19239                  
  D27                  72.8076                   
 
     9 tetrahedral angles replaced.
 ITRead=  0  0  0  0  0  0  0  0  0  0  0  0  0  0  0  0  0  0  0  0
 ITRead=  0  0  0  0  0  0  0  0  0  0
 MicOpt= -1 -1 -1 -1 -1 -1 -1 -1 -1 -1 -1 -1 -1 -1 -1 -1 -1 -1 -1 -1
 MicOpt= -1 -1 -1 -1 -1 -1 -1 -1 -1 -1
 NAtoms=     30 NQM=       30 NQMF=       0 NMMI=      0 NMMIF=      0
                NMic=       0 NMicF=      0.
    9 tetrahedral angles replaced.
                    Isotopes and Nuclear Properties:
 (Nuclear quadrupole moments (NQMom) in fm**2, nuclear magnetic moments (NMagM)
  in nuclear magnetons)

  Atom         1           2           3           4           5           6           7           8           9          10
 IAtWgt=          12          12          12          14           1           1           1          12           1           1
 AtmWgt=  12.0000000  12.0000000  12.0000000  14.0030740   1.0078250   1.0078250   1.0078250  12.0000000   1.0078250   1.0078250
 NucSpn=           0           0           0           2           1           1           1           0           1           1
 AtZEff=   0.0000000   0.0000000   0.0000000   0.0000000   0.0000000   0.0000000   0.0000000   0.0000000   0.0000000   0.0000000
 NQMom=    0.0000000   0.0000000   0.0000000   2.0440000   0.0000000   0.0000000   0.0000000   0.0000000   0.0000000   0.0000000
 NMagM=    0.0000000   0.0000000   0.0000000   0.4037610   2.7928460   2.7928460   2.7928460   0.0000000   2.7928460   2.7928460
 AtZNuc=   6.0000000   6.0000000   6.0000000   7.0000000   1.0000000   1.0000000   1.0000000   6.0000000   1.0000000   1.0000000

  Atom        11          12          13          14          15          16          17          18          19          20
 IAtWgt=          12           1           1          14          12          12          12           1           1           1
 AtmWgt=  12.0000000   1.0078250   1.0078250  14.0030740  12.0000000  12.0000000  12.0000000   1.0078250   1.0078250   1.0078250
 NucSpn=           0           1           1           2           0           0           0           1           1           1
 AtZEff=   0.0000000   0.0000000   0.0000000   0.0000000   0.0000000   0.0000000   0.0000000   0.0000000   0.0000000   0.0000000
 NQMom=    0.0000000   0.0000000   0.0000000   2.0440000   0.0000000   0.0000000   0.0000000   0.0000000   0.0000000   0.0000000
 NMagM=    0.0000000   2.7928460   2.7928460   0.4037610   0.0000000   0.0000000   0.0000000   2.7928460   2.7928460   2.7928460
 AtZNuc=   6.0000000   1.0000000   1.0000000   7.0000000   6.0000000   6.0000000   6.0000000   1.0000000   1.0000000   1.0000000

  Atom        21          22          23          24          25          26          27          28          29          30
 IAtWgt=          14          14          12           1           1           1          12           1           1           1
 AtmWgt=  14.0030740  14.0030740  12.0000000   1.0078250   1.0078250   1.0078250  12.0000000   1.0078250   1.0078250   1.0078250
 NucSpn=           2           2           0           1           1           1           0           1           1           1
 AtZEff=   0.0000000   0.0000000   0.0000000   0.0000000   0.0000000   0.0000000   0.0000000   0.0000000   0.0000000   0.0000000
 NQMom=    2.0440000   2.0440000   0.0000000   0.0000000   0.0000000   0.0000000   0.0000000   0.0000000   0.0000000   0.0000000
 NMagM=    0.4037610   0.4037610   0.0000000   2.7928460   2.7928460   2.7928460   0.0000000   2.7928460   2.7928460   2.7928460
 AtZNuc=   7.0000000   7.0000000   6.0000000   1.0000000   1.0000000   1.0000000   6.0000000   1.0000000   1.0000000   1.0000000
 Leave Link  101 at Sun Sep 04 21:16:53 2022, MaxMem=   131072000 cpu:               0.0 elap:               0.1
 (Enter C:\G16W\l202.exe)
                          Input orientation:                          
 ---------------------------------------------------------------------
 Center     Atomic      Atomic             Coordinates (Angstroms)
 Number     Number       Type             X           Y           Z
 ---------------------------------------------------------------------
      1          6           0        0.000000    0.000000    0.000000
      2          6           0        0.000000    0.000000    1.401750
      3          6           0        2.162249    0.000000    0.668691
      4          7           0        1.320508    0.000055   -0.439727
      5          1           0       -0.833233    0.000058   -0.701588
      6          1           0       -0.872706   -0.000017    2.046123
      7          1           0        3.246021   -0.000095    0.559769
      8          6           0        1.876873    0.000055    3.280219
      9          1           0        1.524899   -0.877962    3.780320
     10          1           0        2.946823    0.008845    3.285575
     11          6           0        1.349599    1.251081    4.007210
     12          1           0        0.298332    1.147927    4.177791
     13          1           0        1.529877    2.116474    3.404305
     14          7           0        2.042884    1.398055    5.295098
     15          6           0        3.138319    2.222108    5.536057
     16          6           0        1.711530    0.736454    6.473914
     17          6           0        3.508735    2.084442    6.880952
     18          1           0        3.570871    2.838165    4.748735
     19          1           0        0.878980    0.035493    6.517939
     20          1           0        4.326187    2.594291    7.379609
     21          7           0        1.370796    0.000066    1.825748
     22          7           0        2.604256    1.142530    7.475573
     23          6           0        1.754682   -0.000249   -1.844146
     24          1           0        0.993179   -0.441344   -2.452790
     25          1           0        1.928601    1.005931   -2.163918
     26          1           0        2.658298   -0.565554   -1.937994
     27          6           0        2.278766    0.458998    8.735629
     28          1           0        2.805126    0.926609    9.541349
     29          1           0        1.225543    0.521664    8.913654
     30          1           0        2.568709   -0.568817    8.669068
 ---------------------------------------------------------------------
                    Distance matrix (angstroms):
                    1          2          3          4          5
     1  C    0.000000
     2  C    1.401750   0.000000
     3  C    2.263287   2.283133   0.000000
     4  N    1.391798   2.266005   1.391804   0.000000
     5  H    1.089267   2.262368   3.294021   2.169602   0.000000
     6  H    2.224463   1.084819   3.332907   3.315062   2.747995
     7  H    3.293933   3.353444   1.089232   2.169468   4.269817
     8  C    3.779218   2.655428   2.627074   3.761322   4.816582
     9  H    4.169767   2.958670   3.295340   4.315262   5.139961
    10  H    4.413485   3.497519   2.731981   4.064831   5.494213
    11  C    4.409575   3.189834   3.656681   4.619650   5.338782
    12  H    4.342887   3.018798   4.135904   4.866613   5.138714
    13  H    4.290603   3.290929   3.516097   4.393136   5.188628
    14  N    5.845168   4.613685   4.834506   5.946801   6.796079
    15  C    6.740529   5.646176   5.438909   6.629627   7.721330
    16  C    6.736710   5.403568   5.869082   6.963735   7.648916
    17  C    8.000226   6.832113   6.689552   7.919934   8.982887
    18  H    6.584587   5.657615   5.165864   6.327649   7.560225
    19  H    6.577036   5.191268   5.988468   6.971752   7.419872
    20  H    8.938952   7.821831   7.513281   8.769617   9.932542
    21  N    2.283076   1.434871   1.401848   2.266033   3.353382
    22  N    7.998232   6.706628   6.916241   8.099706   8.943575
    23  C    2.545542   3.689817   2.545675   1.470000   2.828912
    24  H    2.682791   4.004831   3.362314   2.086720   2.568526
    25  H    3.068215   4.176768   3.014990   2.086720   3.282974
    26  H    3.337997   4.305844   2.713065   2.086720   3.746920
    27  C    9.039617   7.693454   8.080826   9.236669   9.947675
    28  H    9.988227   8.659123   8.944046  10.133335  10.909350
    29  H    9.012619   7.629075   8.314383   9.368395   9.847005
    30  H    9.059501   7.728889   8.030865   9.211502   9.985290
                    6          7          8          9         10
     6  H    0.000000
     7  H    4.378717   0.000000
     8  C    3.013831   3.045557   0.000000
     9  H    3.086541   3.755644   1.070000   0.000000
    10  H    4.015610   2.742192   1.070000   1.747303   0.000000
    11  C    3.217103   4.128766   1.540000   2.148263   2.148263
    12  H    2.689445   4.805924   2.148263   2.401390   3.017956
    13  H    3.478016   3.939086   2.148263   3.017956   2.542427
    14  N    4.583788   5.081899   2.457987   2.782646   2.604840
    15  C    5.762447   5.450984   3.408456   3.911032   3.162258
    16  C    5.179382   6.154208   3.281662   3.145889   3.495835
    17  C    6.849640   6.661206   4.469108   4.724973   4.189342
    18  H    5.924927   5.070373   3.616772   4.351256   3.245816
    19  H    4.802791   6.411236   3.388197   2.957393   3.837299
    20  H    7.887014   7.376165   5.434537   5.732245   5.034708
    21  N    2.254300   2.262559   1.540000   2.148263   2.148263
    22  N    6.547794   7.038878   4.408552   4.347677   4.354156
    23  C    4.694397   2.828940   5.125822   5.697175   5.266434
    24  H    4.890451   3.787547   5.817486   6.270966   6.078506
    25  H    5.155938   3.188441   5.536524   6.248679   5.632756
    26  H    5.353598   2.627543   5.306627   5.837920   5.262970
    27  C    7.408911   8.245668   5.489412   5.187569   5.509267
    28  H    8.400208   9.040019   6.397023   6.171298   6.324324
    29  H    7.199846   8.610572   5.694900   5.329135   5.907712
    30  H    7.485337   8.157385   5.462778   5.008490   5.427583
                   11         12         13         14         15
    11  C    0.000000
    12  H    1.070000   0.000000
    13  H    1.070000   1.747303   0.000000
    14  N    1.470000   2.086720   2.086720   0.000000
    15  C    2.545542   3.326301   2.672566   1.391798   0.000000
    16  C    2.545675   2.727383   3.370453   1.391804   2.263287
    17  C    3.689817   4.300096   4.000497   2.266005   1.401750
    18  H    2.828912   3.727250   2.548330   2.169602   1.089267
    19  H    2.828940   2.655364   3.801167   2.169468   3.293933
    20  H    4.694397   5.344831   4.883718   3.315062   2.224463
    21  N    2.514809   2.828404   2.645058   3.800324   4.672044
    22  N    3.689917   4.024013   4.321815   2.266033   2.283076
    23  C    5.997357   6.301030   5.663681   7.280598   7.830754
    24  H    6.687521   6.853699   6.413738   8.032125   8.690068
    25  H    6.203077   6.549443   5.691871   7.470190   7.888734
    26  H    6.352819   6.775565   6.083319   7.520114   7.991428
    27  C    4.883513   5.017034   5.633035   3.574175   3.752952
    28  H    5.731539   5.924589   6.380075   4.339807   4.222760
    29  H    4.961918   4.866243   5.743602   3.811831   4.237733
    30  H    5.150842   5.317273   6.000641   3.940654   4.234321
                   16         17         18         19         20
    16  C    0.000000
    17  C    2.283133   0.000000
    18  H    3.294021   2.262368   0.000000
    19  H    1.089232   3.353444   4.269817   0.000000
    20  H    3.332907   1.084819   2.747995   4.378717   0.000000
    21  N    4.718454   5.871158   4.630225   4.718029   6.805124
    22  N    1.401848   1.434871   3.353382   2.262559   2.254300
    23  C    8.350731   9.140567   7.404135   8.407889   9.920782
    24  H    9.032678   9.991314   8.322358   8.984119  10.816658
    25  H    8.644760   9.244982   7.337500   8.798756   9.967458
    26  H    8.564566   9.247677   7.558468   8.661988   9.979188
    27  C    2.348211   2.755852   4.819263   2.656484   3.254259
    28  H    3.262096   2.985524   5.216278   3.693932   3.125365
    29  H    2.496928   3.433237   5.311618   2.468991   4.032750
    30  H    2.693917   3.334785   5.289694   2.801380   3.841443
                   21         22         23         24         25
    21  N    0.000000
    22  N    5.894673   0.000000
    23  C    3.689917   9.427878   0.000000
    24  H    4.317792  10.182172   1.070000   0.000000
    25  H    4.152150   9.664107   1.070000   1.747303   0.000000
    26  H    4.017878   9.567430   1.070000   1.747303   1.747303
    27  C    6.984374   1.470000  10.602698  11.297968  10.918877
    28  H    7.902296   2.086720  11.471356  12.207122  11.738308
    29  H    7.108556   2.086720  10.783443  11.409532  11.110419
    30  H    6.970628   2.086720  10.559999  11.233622  10.965544
                   26         27         28         29         30
    26  H    0.000000
    27  C   10.729398   0.000000
    28  H   11.576849   1.070000   0.000000
    29  H   10.999686   1.070000   1.747303   0.000000
    30  H   10.607441   1.070000   1.747303   1.747303   0.000000
 Stoichiometry    C10H16N4(2+)
 Framework group  C1[X(C10H16N4)]
 Deg. of freedom    84
 Full point group                 C1      NOp   1
 Largest Abelian subgroup         C1      NOp   1
 Largest concise Abelian subgroup C1      NOp   1
                         Standard orientation:                         
 ---------------------------------------------------------------------
 Center     Atomic      Atomic             Coordinates (Angstroms)
 Number     Number       Type             X           Y           Z
 ---------------------------------------------------------------------
      1          6           0        3.833935   -1.031540   -0.495417
      2          6           0        2.471033   -1.351873   -0.426212
      3          6           0        2.804107    0.660446    0.599620
      4          7           0        4.029599    0.195610    0.131415
      5          1           0        4.662377   -1.582085   -0.939362
      6          1           0        1.997759   -2.243715   -0.823028
      7          1           0        2.719726    1.609950    1.126638
      8          6           0        0.315056   -0.179803    0.588339
      9          1           0        0.026154   -1.006075    1.203733
     10          1           0        0.120620    0.735960    1.106482
     11          6           0       -0.492318   -0.209212   -0.722723
     12          1           0       -0.457656   -1.193485   -1.140938
     13          1           0       -0.071363    0.488147   -1.416545
     14          7           0       -1.888934    0.156890   -0.446439
     15          6           0       -2.442768    1.422819   -0.613152
     16          6           0       -2.874769   -0.705418    0.024382
     17          6           0       -3.794180    1.366963   -0.245095
     18          1           0       -1.848315    2.260647   -0.975331
     19          1           0       -2.663183   -1.754468    0.227237
     20          1           0       -4.501256    2.189506   -0.262368
     21          7           0        1.818078   -0.279194    0.267953
     22          7           0       -4.068106    0.017742    0.159162
     23          6           0        5.318906    0.886841    0.275593
     24          1           0        6.112484    0.169405    0.255124
     25          1           0        5.443958    1.580084   -0.529812
     26          1           0        5.338751    1.414176    1.206412
     27          6           0       -5.130574   -0.868411    0.655946
     28          1           0       -6.078571   -0.384199    0.547590
     29          1           0       -5.128403   -1.778305    0.092929
     30          1           0       -4.958110   -1.087753    1.688925
 ---------------------------------------------------------------------
 Rotational constants (GHZ):           2.5273723           0.2294636           0.2195945
 Leave Link  202 at Sun Sep 04 21:16:53 2022, MaxMem=   131072000 cpu:               0.0 elap:               0.0
 (Enter C:\G16W\l301.exe)
 Standard basis: VSTO-6G (5D, 7F)
 Ernie: Thresh=  0.10000D-02 Tol=  0.10000D-05 Strict=F.
  NNHCO=     0 NNPyr=     0 NCTC=     0               EPep=         0.000000000
    EC=       393.947408189  ECS=         5.239699585   EG=         1.016095612
   EHC=         0.000000000  EAt=       -71.732012379  AtH=         4.772090499
 EPDDG=         0.000000000  ECC=       400.203203386 EAtT=        76.504102878
 There are    72 symmetry adapted cartesian basis functions of A   symmetry.
 There are    72 symmetry adapted basis functions of A   symmetry.
    72 basis functions,   432 primitive gaussians,    72 cartesian basis functions
    37 alpha electrons       37 beta electrons
       nuclear repulsion energy       476.7073062641 Hartrees.
 IExCor=    0 DFT=F Ex=HF Corr=None ExCW=0 ScaHFX=  1.000000
 ScaDFX=  1.000000  1.000000  1.000000  1.000000 ScalE2=  1.000000  1.000000
 IRadAn=      5 IRanWt=     -1 IRanGd=            0 ICorTp=0 IEmpDi=  4
 Integral buffers will be    131072 words long.
 Regular integral format.
 Two-electron integral symmetry is turned off.
 Leave Link  301 at Sun Sep 04 21:16:54 2022, MaxMem=   131072000 cpu:               1.0 elap:               0.0
 (Enter C:\G16W\l302.exe)
 Do NDO integrals.
 NPDir=0 NMtPBC=     1 NCelOv=     1 NCel=       1 NClECP=     1 NCelD=      1
         NCelK=      1 NCelE2=     1 NClLst=     1 CellRange=     0.0.
 One-electron integrals computed using PRISM.
 NBasis=    72 RedAO= F EigKep=  0.00D+00  NBF=    72
 NBsUse=    72 1.00D-04 EigRej=  0.00D+00 NBFU=    72
 Leave Link  302 at Sun Sep 04 21:16:54 2022, MaxMem=   131072000 cpu:               0.0 elap:               0.1
 (Enter C:\G16W\l303.exe)
 DipDrv:  MaxL=1.
 Leave Link  303 at Sun Sep 04 21:16:54 2022, MaxMem=   131072000 cpu:               0.0 elap:               0.0
 (Enter C:\G16W\l401.exe)
 Simple Huckel Guess.
 JPrj=0 DoOrth=F DoCkMO=F.
 Leave Link  401 at Sun Sep 04 21:16:55 2022, MaxMem=   131072000 cpu:               0.0 elap:               0.0
 (Enter C:\G16W\l502.exe)
 Keep J ints in memory in canonical form, NReq=872163.
 FoFCou: FMM=F IPFlag=           0 FMFlag=           0 FMFlg1=           0
         NFxFlg=           0 DoJE=F BraDBF=F KetDBF=F FulRan=T
         wScrn=  0.000000 ICntrl=       600 IOpCl=  2 I1Cent=           0 NGrid=           0
         NMat0=    1 NMatS0=    156 NMatT0=    0 NMatD0=    1 NMtDS0=    0 NMtDT0=    0
 Symmetry not used in FoFCou.
 Two-electron integral symmetry not used.
 Closed shell SCF:
 Using DIIS extrapolation, IDIIS=  1040.
 Overlap will be assumed to be unity.
 NGot=   131072000 LenX=   130988616 LenY=   130982991
 Requested convergence on RMS density matrix=1.00D-08 within 128 cycles.
 Requested convergence on MAX density matrix=1.00D-06.
 Requested convergence on             energy=1.00D-06.
 No special actions if energy rises.

 Cycle   1  Pass 1  IDiag  1:
 E=  1.14025348191774    
 DIIS: error= 3.34D-02 at cycle   1 NSaved=   1.
 NSaved= 1 IEnMin= 1 EnMin=  1.14025348191774     IErMin= 1 ErrMin= 3.34D-02
 ErrMax= 3.34D-02  0.00D+00 EMaxC= 1.00D-01 BMatC= 1.70D-01 BMatP= 1.70D-01
 IDIUse=3 WtCom= 6.66D-01 WtEn= 3.34D-01
 Coeff-Com:  0.100D+01
 Coeff-En:   0.100D+01
 Coeff:      0.100D+01
 GapD=    2.000 DampG=2.000 DampE=0.500 DampFc=1.0000 IDamp=-1.
 RMSDP=8.69D-03 MaxDP=1.16D-01              OVMax= 0.00D+00

 Cycle   2  Pass 1  IDiag  1:
 E= 0.714093413186788     Delta-E=       -0.426160068731 Rises=F Damp=F
 DIIS: error= 1.02D-02 at cycle   2 NSaved=   2.
 NSaved= 2 IEnMin= 2 EnMin= 0.714093413186788     IErMin= 2 ErrMin= 1.02D-02
 ErrMax= 1.02D-02  0.00D+00 EMaxC= 1.00D-01 BMatC= 9.71D-03 BMatP= 1.70D-01
 IDIUse=3 WtCom= 8.98D-01 WtEn= 1.02D-01
 Coeff-Com: -0.250D+00 0.125D+01
 Coeff-En:   0.000D+00 0.100D+01
 Coeff:     -0.224D+00 0.122D+01
 RMSDP=2.65D-03 MaxDP=3.57D-02 DE=-4.26D-01 OVMax= 0.00D+00

 Cycle   3  Pass 1  IDiag  3:
 E= 0.684573550322114     Delta-E=       -0.029519862865 Rises=F Damp=F
 DIIS: error= 1.94D-03 at cycle   3 NSaved=   3.
 NSaved= 3 IEnMin= 3 EnMin= 0.684573550322114     IErMin= 3 ErrMin= 1.94D-03
 ErrMax= 1.94D-03  0.00D+00 EMaxC= 1.00D-01 BMatC= 3.62D-04 BMatP= 9.71D-03
 IDIUse=3 WtCom= 9.81D-01 WtEn= 1.94D-02
 Coeff-Com:  0.484D-01-0.346D+00 0.130D+01
 Coeff-En:   0.000D+00 0.000D+00 0.100D+01
 Coeff:      0.475D-01-0.340D+00 0.129D+01
 Gap=     0.349 Goal=   None    Shift=    0.000
 RMSDP=6.69D-04 MaxDP=9.29D-03 DE=-2.95D-02 OVMax= 5.16D-03

 Cycle   4  Pass 1  IDiag  3:
 E= 0.683016121772710     Delta-E=       -0.001557428549 Rises=F Damp=F
 DIIS: error= 5.63D-04 at cycle   4 NSaved=   4.
 NSaved= 4 IEnMin= 4 EnMin= 0.683016121772710     IErMin= 4 ErrMin= 5.63D-04
 ErrMax= 5.63D-04  0.00D+00 EMaxC= 1.00D-01 BMatC= 2.86D-05 BMatP= 3.62D-04
 IDIUse=3 WtCom= 9.94D-01 WtEn= 5.63D-03
 Coeff-Com:  0.221D-03 0.276D-01-0.396D+00 0.137D+01
 Coeff-En:   0.000D+00 0.000D+00 0.000D+00 0.100D+01
 Coeff:      0.220D-03 0.274D-01-0.394D+00 0.137D+01
 Gap=     0.349 Goal=   None    Shift=    0.000
 RMSDP=2.28D-04 MaxDP=2.82D-03 DE=-1.56D-03 OVMax= 1.65D-03

 Cycle   5  Pass 1  IDiag  3:
 E= 0.682870325593228     Delta-E=       -0.000145796179 Rises=F Damp=F
 DIIS: error= 1.24D-04 at cycle   5 NSaved=   5.
 NSaved= 5 IEnMin= 5 EnMin= 0.682870325593228     IErMin= 5 ErrMin= 1.24D-04
 ErrMax= 1.24D-04  0.00D+00 EMaxC= 1.00D-01 BMatC= 2.41D-06 BMatP= 2.86D-05
 IDIUse=3 WtCom= 9.99D-01 WtEn= 1.24D-03
 Coeff-Com: -0.165D-02 0.506D-02 0.542D-01-0.436D+00 0.138D+01
 Coeff-En:   0.000D+00 0.000D+00 0.000D+00 0.000D+00 0.100D+01
 Coeff:     -0.165D-02 0.505D-02 0.541D-01-0.436D+00 0.138D+01
 Gap=     0.349 Goal=   None    Shift=    0.000
 RMSDP=6.98D-05 MaxDP=8.06D-04 DE=-1.46D-04 OVMax= 5.28D-04

 Cycle   6  Pass 1  IDiag  3:
 E= 0.682856551529085     Delta-E=       -0.000013774064 Rises=F Damp=F
 DIIS: error= 6.34D-05 at cycle   6 NSaved=   6.
 NSaved= 6 IEnMin= 6 EnMin= 0.682856551529085     IErMin= 6 ErrMin= 6.34D-05
 ErrMax= 6.34D-05  0.00D+00 EMaxC= 1.00D-01 BMatC= 3.42D-07 BMatP= 2.41D-06
 IDIUse=1 WtCom= 1.00D+00 WtEn= 0.00D+00
 Coeff-Com:  0.154D-02-0.103D-01 0.322D-01 0.316D-01-0.642D+00 0.159D+01
 Coeff:      0.154D-02-0.103D-01 0.322D-01 0.316D-01-0.642D+00 0.159D+01
 Gap=     0.349 Goal=   None    Shift=    0.000
 RMSDP=3.36D-05 MaxDP=4.32D-04 DE=-1.38D-05 OVMax= 3.20D-04

 Cycle   7  Pass 1  IDiag  3:
 E= 0.682854282555297     Delta-E=       -0.000002268974 Rises=F Damp=F
 DIIS: error= 1.67D-05 at cycle   7 NSaved=   7.
 NSaved= 7 IEnMin= 7 EnMin= 0.682854282555297     IErMin= 7 ErrMin= 1.67D-05
 ErrMax= 1.67D-05  0.00D+00 EMaxC= 1.00D-01 BMatC= 2.21D-08 BMatP= 3.42D-07
 IDIUse=1 WtCom= 1.00D+00 WtEn= 0.00D+00
 Coeff-Com: -0.262D-03 0.241D-02-0.151D-01 0.270D-01 0.117D+00-0.610D+00
 Coeff-Com:  0.148D+01
 Coeff:     -0.262D-03 0.241D-02-0.151D-01 0.270D-01 0.117D+00-0.610D+00
 Coeff:      0.148D+01
 Gap=     0.349 Goal=   None    Shift=    0.000
 RMSDP=1.02D-05 MaxDP=1.55D-04 DE=-2.27D-06 OVMax= 1.66D-04

 Cycle   8  Pass 1  IDiag  3:
 E= 0.682854111580696     Delta-E=       -0.000000170975 Rises=F Damp=F
 DIIS: error= 5.11D-06 at cycle   8 NSaved=   8.
 NSaved= 8 IEnMin= 8 EnMin= 0.682854111580696     IErMin= 8 ErrMin= 5.11D-06
 ErrMax= 5.11D-06  0.00D+00 EMaxC= 1.00D-01 BMatC= 1.58D-09 BMatP= 2.21D-08
 IDIUse=1 WtCom= 1.00D+00 WtEn= 0.00D+00
 Coeff-Com:  0.990D-04-0.962D-03 0.690D-02-0.172D-01-0.260D-01 0.236D+00
 Coeff-Com: -0.784D+00 0.159D+01
 Coeff:      0.990D-04-0.962D-03 0.690D-02-0.172D-01-0.260D-01 0.236D+00
 Coeff:     -0.784D+00 0.159D+01
 Gap=     0.349 Goal=   None    Shift=    0.000
 RMSDP=3.21D-06 MaxDP=5.33D-05 DE=-1.71D-07 OVMax= 7.48D-05

 Cycle   9  Pass 1  IDiag  3:
 E= 0.682854095628159     Delta-E=       -0.000000015953 Rises=F Damp=F
 DIIS: error= 1.89D-06 at cycle   9 NSaved=   9.
 NSaved= 9 IEnMin= 9 EnMin= 0.682854095628159     IErMin= 9 ErrMin= 1.89D-06
 ErrMax= 1.89D-06  0.00D+00 EMaxC= 1.00D-01 BMatC= 1.87D-10 BMatP= 1.58D-09
 IDIUse=1 WtCom= 1.00D+00 WtEn= 0.00D+00
 Coeff-Com: -0.158D-04 0.216D-03-0.202D-02 0.604D-02 0.313D-02-0.667D-01
 Coeff-Com:  0.270D+00-0.878D+00 0.167D+01
 Coeff:     -0.158D-04 0.216D-03-0.202D-02 0.604D-02 0.313D-02-0.667D-01
 Coeff:      0.270D+00-0.878D+00 0.167D+01
 Gap=     0.349 Goal=   None    Shift=    0.000
 RMSDP=1.35D-06 MaxDP=2.13D-05 DE=-1.60D-08 OVMax= 3.19D-05

 Cycle  10  Pass 1  IDiag  3:
 E= 0.682854093637275     Delta-E=       -0.000000001991 Rises=F Damp=F
 DIIS: error= 2.89D-07 at cycle  10 NSaved=  10.
 NSaved=10 IEnMin=10 EnMin= 0.682854093637275     IErMin=10 ErrMin= 2.89D-07
 ErrMax= 2.89D-07  0.00D+00 EMaxC= 1.00D-01 BMatC= 7.82D-12 BMatP= 1.87D-10
 IDIUse=1 WtCom= 1.00D+00 WtEn= 0.00D+00
 Coeff-Com:  0.103D-05-0.168D-04 0.196D-03-0.724D-03 0.411D-03 0.566D-02
 Coeff-Com: -0.321D-01 0.146D+00-0.443D+00 0.132D+01
 Coeff:      0.103D-05-0.168D-04 0.196D-03-0.724D-03 0.411D-03 0.566D-02
 Coeff:     -0.321D-01 0.146D+00-0.443D+00 0.132D+01
 Gap=     0.349 Goal=   None    Shift=    0.000
 RMSDP=2.18D-07 MaxDP=3.85D-06 DE=-1.99D-09 OVMax= 4.99D-06

 Cycle  11  Pass 1  IDiag  3:
 E= 0.682854093570541     Delta-E=       -0.000000000067 Rises=F Damp=F
 DIIS: error= 5.48D-08 at cycle  11 NSaved=  11.
 NSaved=11 IEnMin=11 EnMin= 0.682854093570541     IErMin=11 ErrMin= 5.48D-08
 ErrMax= 5.48D-08  0.00D+00 EMaxC= 1.00D-01 BMatC= 4.57D-13 BMatP= 7.82D-12
 IDIUse=1 WtCom= 1.00D+00 WtEn= 0.00D+00
 Coeff-Com:  0.625D-06-0.362D-05 0.511D-05 0.400D-04-0.254D-03 0.492D-03
 Coeff-Com:  0.349D-03-0.776D-02 0.493D-01-0.349D+00 0.131D+01
 Coeff:      0.625D-06-0.362D-05 0.511D-05 0.400D-04-0.254D-03 0.492D-03
 Coeff:      0.349D-03-0.776D-02 0.493D-01-0.349D+00 0.131D+01
 Gap=     0.349 Goal=   None    Shift=    0.000
 RMSDP=3.84D-08 MaxDP=6.97D-07 DE=-6.67D-11 OVMax= 7.23D-07

 Cycle  12  Pass 1  IDiag  3:
 E= 0.682854093569063     Delta-E=       -0.000000000001 Rises=F Damp=F
 DIIS: error= 1.81D-08 at cycle  12 NSaved=  12.
 NSaved=12 IEnMin=12 EnMin= 0.682854093569063     IErMin=12 ErrMin= 1.81D-08
 ErrMax= 1.81D-08  0.00D+00 EMaxC= 1.00D-01 BMatC= 3.86D-14 BMatP= 4.57D-13
 IDIUse=1 WtCom= 1.00D+00 WtEn= 0.00D+00
 Coeff-Com: -0.718D-07 0.108D-05-0.983D-05 0.256D-04 0.341D-04-0.337D-03
 Coeff-Com:  0.992D-03-0.176D-02-0.451D-02 0.852D-01-0.542D+00 0.146D+01
 Coeff:     -0.718D-07 0.108D-05-0.983D-05 0.256D-04 0.341D-04-0.337D-03
 Coeff:      0.992D-03-0.176D-02-0.451D-02 0.852D-01-0.542D+00 0.146D+01
 Gap=     0.349 Goal=   None    Shift=    0.000
 RMSDP=1.17D-08 MaxDP=1.94D-07 DE=-1.48D-12 OVMax= 1.81D-07

 Cycle  13  Pass 1  IDiag  3:
 E= 0.682854093570256     Delta-E=        0.000000000001 Rises=F Damp=F
 DIIS: error= 6.37D-09 at cycle  13 NSaved=  13.
 NSaved=13 IEnMin=12 EnMin= 0.682854093569063     IErMin=13 ErrMin= 6.37D-09
 ErrMax= 6.37D-09  0.00D+00 EMaxC= 1.00D-01 BMatC= 3.05D-15 BMatP= 3.86D-14
 IDIUse=1 WtCom= 1.00D+00 WtEn= 0.00D+00
 Coeff-Com:  0.784D-07-0.802D-06 0.613D-05-0.159D-04-0.217D-04 0.220D-03
 Coeff-Com: -0.752D-03 0.204D-02-0.270D-02-0.904D-02 0.118D+00-0.562D+00
 Coeff-Com:  0.145D+01
 Coeff:      0.784D-07-0.802D-06 0.613D-05-0.159D-04-0.217D-04 0.220D-03
 Coeff:     -0.752D-03 0.204D-02-0.270D-02-0.904D-02 0.118D+00-0.562D+00
 Coeff:      0.145D+01
 Gap=     0.349 Goal=   None    Shift=    0.000
 RMSDP=3.57D-09 MaxDP=5.24D-08 DE= 1.19D-12 OVMax= 5.66D-08

 Cycle  14  Pass 2  IDiag  1:
 SCF Done:  E(RPM3) =  0.682854093570     A.U. after   14 cycles
            NFock= 13  Conv=0.36D-08     -V/T= 1.0060
 KE=-1.147276921769D+02 PE=-7.644119180289D+02 EE= 4.031151580353D+02
 Leave Link  502 at Sun Sep 04 21:16:55 2022, MaxMem=   131072000 cpu:               0.0 elap:               0.1
 (Enter C:\G16W\l601.exe)
 Copying SCF densities to generalized density rwf, IOpCl= 0 IROHF=0.

 **********************************************************************

            Population analysis using the SCF density.

 **********************************************************************

 Orbital symmetries:
       Occupied  (A) (A) (A) (A) (A) (A) (A) (A) (A) (A) (A) (A)
                 (A) (A) (A) (A) (A) (A) (A) (A) (A) (A) (A) (A)
                 (A) (A) (A) (A) (A) (A) (A) (A) (A) (A) (A) (A)
                 (A)
       Virtual   (A) (A) (A) (A) (A) (A) (A) (A) (A) (A) (A) (A)
                 (A) (A) (A) (A) (A) (A) (A) (A) (A) (A) (A) (A)
                 (A) (A) (A) (A) (A) (A) (A) (A) (A) (A) (A)
 The electronic state is 1-A.
 Alpha  occ. eigenvalues --   -1.75708  -1.70727  -1.56710  -1.44266  -1.40557
 Alpha  occ. eigenvalues --   -1.32135  -1.27515  -1.23079  -1.16969  -1.12547
 Alpha  occ. eigenvalues --   -1.04383  -1.03801  -1.02314  -1.01616  -0.96023
 Alpha  occ. eigenvalues --   -0.93372  -0.88278  -0.87216  -0.86178  -0.84903
 Alpha  occ. eigenvalues --   -0.84432  -0.83846  -0.83454  -0.82840  -0.82611
 Alpha  occ. eigenvalues --   -0.81753  -0.81269  -0.80360  -0.77015  -0.75735
 Alpha  occ. eigenvalues --   -0.75241  -0.75087  -0.74649  -0.66241  -0.65494
 Alpha  occ. eigenvalues --   -0.63661  -0.63479
 Alpha virt. eigenvalues --   -0.28555  -0.28040  -0.26603  -0.24789  -0.24561
 Alpha virt. eigenvalues --   -0.24427  -0.22729  -0.22023  -0.18445  -0.17350
 Alpha virt. eigenvalues --   -0.17082  -0.16369  -0.15692  -0.15253  -0.14907
 Alpha virt. eigenvalues --   -0.14749  -0.14543  -0.14005  -0.13323  -0.13044
 Alpha virt. eigenvalues --   -0.12439  -0.11894  -0.11786  -0.09718  -0.09575
 Alpha virt. eigenvalues --   -0.09208  -0.09180  -0.08949  -0.08877  -0.07855
 Alpha virt. eigenvalues --   -0.07624  -0.07280  -0.06733  -0.05941  -0.05752
          Condensed to atoms (all electrons):
               1          2          3          4          5          6
     1  C    4.190220   0.000000   0.000000   0.000000   0.000000   0.000000
     2  C    0.000000   4.195086   0.000000   0.000000   0.000000   0.000000
     3  C    0.000000   0.000000   4.284916   0.000000   0.000000   0.000000
     4  N    0.000000   0.000000   0.000000   4.570590   0.000000   0.000000
     5  H    0.000000   0.000000   0.000000   0.000000   0.797830   0.000000
     6  H    0.000000   0.000000   0.000000   0.000000   0.000000   0.808223
     7  H    0.000000   0.000000   0.000000   0.000000   0.000000   0.000000
     8  C    0.000000   0.000000   0.000000   0.000000   0.000000   0.000000
     9  H    0.000000   0.000000   0.000000   0.000000   0.000000   0.000000
    10  H    0.000000   0.000000   0.000000   0.000000   0.000000   0.000000
    11  C    0.000000   0.000000   0.000000   0.000000   0.000000   0.000000
    12  H    0.000000   0.000000   0.000000   0.000000   0.000000   0.000000
    13  H    0.000000   0.000000   0.000000   0.000000   0.000000   0.000000
    14  N    0.000000   0.000000   0.000000   0.000000   0.000000   0.000000
    15  C    0.000000   0.000000   0.000000   0.000000   0.000000   0.000000
    16  C    0.000000   0.000000   0.000000   0.000000   0.000000   0.000000
    17  C    0.000000   0.000000   0.000000   0.000000   0.000000   0.000000
    18  H    0.000000   0.000000   0.000000   0.000000   0.000000   0.000000
    19  H    0.000000   0.000000   0.000000   0.000000   0.000000   0.000000
    20  H    0.000000   0.000000   0.000000   0.000000   0.000000   0.000000
    21  N    0.000000   0.000000   0.000000   0.000000   0.000000   0.000000
    22  N    0.000000   0.000000   0.000000   0.000000   0.000000   0.000000
    23  C    0.000000   0.000000   0.000000   0.000000   0.000000   0.000000
    24  H    0.000000   0.000000   0.000000   0.000000   0.000000   0.000000
    25  H    0.000000   0.000000   0.000000   0.000000   0.000000   0.000000
    26  H    0.000000   0.000000   0.000000   0.000000   0.000000   0.000000
    27  C    0.000000   0.000000   0.000000   0.000000   0.000000   0.000000
    28  H    0.000000   0.000000   0.000000   0.000000   0.000000   0.000000
    29  H    0.000000   0.000000   0.000000   0.000000   0.000000   0.000000
    30  H    0.000000   0.000000   0.000000   0.000000   0.000000   0.000000
               7          8          9         10         11         12
     1  C    0.000000   0.000000   0.000000   0.000000   0.000000   0.000000
     2  C    0.000000   0.000000   0.000000   0.000000   0.000000   0.000000
     3  C    0.000000   0.000000   0.000000   0.000000   0.000000   0.000000
     4  N    0.000000   0.000000   0.000000   0.000000   0.000000   0.000000
     5  H    0.000000   0.000000   0.000000   0.000000   0.000000   0.000000
     6  H    0.000000   0.000000   0.000000   0.000000   0.000000   0.000000
     7  H    0.789223   0.000000   0.000000   0.000000   0.000000   0.000000
     8  C    0.000000   4.072026   0.000000   0.000000   0.000000   0.000000
     9  H    0.000000   0.000000   0.898722   0.000000   0.000000   0.000000
    10  H    0.000000   0.000000   0.000000   0.902368   0.000000   0.000000
    11  C    0.000000   0.000000   0.000000   0.000000   4.113738   0.000000
    12  H    0.000000   0.000000   0.000000   0.000000   0.000000   0.894138
    13  H    0.000000   0.000000   0.000000   0.000000   0.000000   0.000000
    14  N    0.000000   0.000000   0.000000   0.000000   0.000000   0.000000
    15  C    0.000000   0.000000   0.000000   0.000000   0.000000   0.000000
    16  C    0.000000   0.000000   0.000000   0.000000   0.000000   0.000000
    17  C    0.000000   0.000000   0.000000   0.000000   0.000000   0.000000
    18  H    0.000000   0.000000   0.000000   0.000000   0.000000   0.000000
    19  H    0.000000   0.000000   0.000000   0.000000   0.000000   0.000000
    20  H    0.000000   0.000000   0.000000   0.000000   0.000000   0.000000
    21  N    0.000000   0.000000   0.000000   0.000000   0.000000   0.000000
    22  N    0.000000   0.000000   0.000000   0.000000   0.000000   0.000000
    23  C    0.000000   0.000000   0.000000   0.000000   0.000000   0.000000
    24  H    0.000000   0.000000   0.000000   0.000000   0.000000   0.000000
    25  H    0.000000   0.000000   0.000000   0.000000   0.000000   0.000000
    26  H    0.000000   0.000000   0.000000   0.000000   0.000000   0.000000
    27  C    0.000000   0.000000   0.000000   0.000000   0.000000   0.000000
    28  H    0.000000   0.000000   0.000000   0.000000   0.000000   0.000000
    29  H    0.000000   0.000000   0.000000   0.000000   0.000000   0.000000
    30  H    0.000000   0.000000   0.000000   0.000000   0.000000   0.000000
              13         14         15         16         17         18
     1  C    0.000000   0.000000   0.000000   0.000000   0.000000   0.000000
     2  C    0.000000   0.000000   0.000000   0.000000   0.000000   0.000000
     3  C    0.000000   0.000000   0.000000   0.000000   0.000000   0.000000
     4  N    0.000000   0.000000   0.000000   0.000000   0.000000   0.000000
     5  H    0.000000   0.000000   0.000000   0.000000   0.000000   0.000000
     6  H    0.000000   0.000000   0.000000   0.000000   0.000000   0.000000
     7  H    0.000000   0.000000   0.000000   0.000000   0.000000   0.000000
     8  C    0.000000   0.000000   0.000000   0.000000   0.000000   0.000000
     9  H    0.000000   0.000000   0.000000   0.000000   0.000000   0.000000
    10  H    0.000000   0.000000   0.000000   0.000000   0.000000   0.000000
    11  C    0.000000   0.000000   0.000000   0.000000   0.000000   0.000000
    12  H    0.000000   0.000000   0.000000   0.000000   0.000000   0.000000
    13  H    0.892313   0.000000   0.000000   0.000000   0.000000   0.000000
    14  N    0.000000   4.629580   0.000000   0.000000   0.000000   0.000000
    15  C    0.000000   0.000000   4.219636   0.000000   0.000000   0.000000
    16  C    0.000000   0.000000   0.000000   4.330236   0.000000   0.000000
    17  C    0.000000   0.000000   0.000000   0.000000   4.133929   0.000000
    18  H    0.000000   0.000000   0.000000   0.000000   0.000000   0.808502
    19  H    0.000000   0.000000   0.000000   0.000000   0.000000   0.000000
    20  H    0.000000   0.000000   0.000000   0.000000   0.000000   0.000000
    21  N    0.000000   0.000000   0.000000   0.000000   0.000000   0.000000
    22  N    0.000000   0.000000   0.000000   0.000000   0.000000   0.000000
    23  C    0.000000   0.000000   0.000000   0.000000   0.000000   0.000000
    24  H    0.000000   0.000000   0.000000   0.000000   0.000000   0.000000
    25  H    0.000000   0.000000   0.000000   0.000000   0.000000   0.000000
    26  H    0.000000   0.000000   0.000000   0.000000   0.000000   0.000000
    27  C    0.000000   0.000000   0.000000   0.000000   0.000000   0.000000
    28  H    0.000000   0.000000   0.000000   0.000000   0.000000   0.000000
    29  H    0.000000   0.000000   0.000000   0.000000   0.000000   0.000000
    30  H    0.000000   0.000000   0.000000   0.000000   0.000000   0.000000
              19         20         21         22         23         24
     1  C    0.000000   0.000000   0.000000   0.000000   0.000000   0.000000
     2  C    0.000000   0.000000   0.000000   0.000000   0.000000   0.000000
     3  C    0.000000   0.000000   0.000000   0.000000   0.000000   0.000000
     4  N    0.000000   0.000000   0.000000   0.000000   0.000000   0.000000
     5  H    0.000000   0.000000   0.000000   0.000000   0.000000   0.000000
     6  H    0.000000   0.000000   0.000000   0.000000   0.000000   0.000000
     7  H    0.000000   0.000000   0.000000   0.000000   0.000000   0.000000
     8  C    0.000000   0.000000   0.000000   0.000000   0.000000   0.000000
     9  H    0.000000   0.000000   0.000000   0.000000   0.000000   0.000000
    10  H    0.000000   0.000000   0.000000   0.000000   0.000000   0.000000
    11  C    0.000000   0.000000   0.000000   0.000000   0.000000   0.000000
    12  H    0.000000   0.000000   0.000000   0.000000   0.000000   0.000000
    13  H    0.000000   0.000000   0.000000   0.000000   0.000000   0.000000
    14  N    0.000000   0.000000   0.000000   0.000000   0.000000   0.000000
    15  C    0.000000   0.000000   0.000000   0.000000   0.000000   0.000000
    16  C    0.000000   0.000000   0.000000   0.000000   0.000000   0.000000
    17  C    0.000000   0.000000   0.000000   0.000000   0.000000   0.000000
    18  H    0.000000   0.000000   0.000000   0.000000   0.000000   0.000000
    19  H    0.789835   0.000000   0.000000   0.000000   0.000000   0.000000
    20  H    0.000000   0.796675   0.000000   0.000000   0.000000   0.000000
    21  N    0.000000   0.000000   4.675424   0.000000   0.000000   0.000000
    22  N    0.000000   0.000000   0.000000   4.578705   0.000000   0.000000
    23  C    0.000000   0.000000   0.000000   0.000000   4.115997   0.000000
    24  H    0.000000   0.000000   0.000000   0.000000   0.000000   0.894554
    25  H    0.000000   0.000000   0.000000   0.000000   0.000000   0.000000
    26  H    0.000000   0.000000   0.000000   0.000000   0.000000   0.000000
    27  C    0.000000   0.000000   0.000000   0.000000   0.000000   0.000000
    28  H    0.000000   0.000000   0.000000   0.000000   0.000000   0.000000
    29  H    0.000000   0.000000   0.000000   0.000000   0.000000   0.000000
    30  H    0.000000   0.000000   0.000000   0.000000   0.000000   0.000000
              25         26         27         28         29         30
     1  C    0.000000   0.000000   0.000000   0.000000   0.000000   0.000000
     2  C    0.000000   0.000000   0.000000   0.000000   0.000000   0.000000
     3  C    0.000000   0.000000   0.000000   0.000000   0.000000   0.000000
     4  N    0.000000   0.000000   0.000000   0.000000   0.000000   0.000000
     5  H    0.000000   0.000000   0.000000   0.000000   0.000000   0.000000
     6  H    0.000000   0.000000   0.000000   0.000000   0.000000   0.000000
     7  H    0.000000   0.000000   0.000000   0.000000   0.000000   0.000000
     8  C    0.000000   0.000000   0.000000   0.000000   0.000000   0.000000
     9  H    0.000000   0.000000   0.000000   0.000000   0.000000   0.000000
    10  H    0.000000   0.000000   0.000000   0.000000   0.000000   0.000000
    11  C    0.000000   0.000000   0.000000   0.000000   0.000000   0.000000
    12  H    0.000000   0.000000   0.000000   0.000000   0.000000   0.000000
    13  H    0.000000   0.000000   0.000000   0.000000   0.000000   0.000000
    14  N    0.000000   0.000000   0.000000   0.000000   0.000000   0.000000
    15  C    0.000000   0.000000   0.000000   0.000000   0.000000   0.000000
    16  C    0.000000   0.000000   0.000000   0.000000   0.000000   0.000000
    17  C    0.000000   0.000000   0.000000   0.000000   0.000000   0.000000
    18  H    0.000000   0.000000   0.000000   0.000000   0.000000   0.000000
    19  H    0.000000   0.000000   0.000000   0.000000   0.000000   0.000000
    20  H    0.000000   0.000000   0.000000   0.000000   0.000000   0.000000
    21  N    0.000000   0.000000   0.000000   0.000000   0.000000   0.000000
    22  N    0.000000   0.000000   0.000000   0.000000   0.000000   0.000000
    23  C    0.000000   0.000000   0.000000   0.000000   0.000000   0.000000
    24  H    0.000000   0.000000   0.000000   0.000000   0.000000   0.000000
    25  H    0.901620   0.000000   0.000000   0.000000   0.000000   0.000000
    26  H    0.000000   0.904248   0.000000   0.000000   0.000000   0.000000
    27  C    0.000000   0.000000   4.104938   0.000000   0.000000   0.000000
    28  H    0.000000   0.000000   0.000000   0.898550   0.000000   0.000000
    29  H    0.000000   0.000000   0.000000   0.000000   0.902857   0.000000
    30  H    0.000000   0.000000   0.000000   0.000000   0.000000   0.905320
 Mulliken charges:
               1
     1  C   -0.190220
     2  C   -0.195086
     3  C   -0.284916
     4  N    0.429410
     5  H    0.202170
     6  H    0.191777
     7  H    0.210777
     8  C   -0.072026
     9  H    0.101278
    10  H    0.097632
    11  C   -0.113738
    12  H    0.105862
    13  H    0.107687
    14  N    0.370420
    15  C   -0.219636
    16  C   -0.330236
    17  C   -0.133929
    18  H    0.191498
    19  H    0.210165
    20  H    0.203325
    21  N    0.324576
    22  N    0.421295
    23  C   -0.115997
    24  H    0.105446
    25  H    0.098380
    26  H    0.095752
    27  C   -0.104938
    28  H    0.101450
    29  H    0.097143
    30  H    0.094680
 Sum of Mulliken charges =   2.00000
 Mulliken charges with hydrogens summed into heavy atoms:
               1
     1  C    0.011950
     2  C   -0.003310
     3  C   -0.074140
     4  N    0.429410
     8  C    0.126884
    11  C    0.099811
    14  N    0.370420
    15  C   -0.028138
    16  C   -0.120071
    17  C    0.069396
    21  N    0.324576
    22  N    0.421295
    23  C    0.183581
    27  C    0.188334
 Charge=              2.0000 electrons
 Dipole moment (field-independent basis, Debye):
    X=              0.0746    Y=              0.2935    Z=              0.5882  Tot=              0.6616
 N-N= 4.767073062641D+02 E-N=-7.644119178531D+02  KE=-1.147276921769D+02
 Leave Link  601 at Sun Sep 04 21:16:56 2022, MaxMem=   131072000 cpu:               0.0 elap:               0.0
 (Enter C:\G16W\l9999.exe)
 1|1|UNPC-DESKTOP-RNC6JTU|SP|RPM3|ZDO|C10H16N4(2+)|BNULK|04-Sep-2022|0|
 |#p pm3||T1||2,1|C|C,1,1.40175|C,1,2.26328708,2,72.81540165|N,1,1.3917
 9783,2,108.41767385,3,-0.00236531,0|H,1,1.08926717,4,121.4847135,3,179
 .99818719,0|H,2,1.08481903,1,126.44075323,4,179.99874918,0|H,3,1.08923
 173,1,157.07629267,4,-0.01666731,0|C,3,2.62707428,1,100.94830972,4,179
 .99492811,0|H,8,1.07,3,120.02210193,1,71.39577158,0|H,8,1.07,3,84.0507
 3417,1,-179.52641851,0|C,8,1.54,3,120.43020686,1,-70.41129375,0|H,11,1
 .07,8,109.47122063,3,96.80841586,0|H,11,1.07,8,109.47122063,3,-23.1915
 7674,0|N,11,1.47,8,109.47122063,3,-143.19156934,0|C,14,1.39179783,11,1
 25.596589,8,97.43492188,0|C,14,1.391804,11,125.60777068,8,-82.58752184
 ,0|C,15,1.40175,14,108.41767385,11,179.98460655,0|H,15,1.08926717,14,1
 21.4847135,11,-0.02108791,0|H,16,1.08923173,14,121.47420285,11,0.01166
 589,0|H,17,1.08481903,15,126.44075323,14,179.99874918,0|N,3,1.40184834
 ,1,72.8115928,4,179.99332433,0|N,16,1.40184834,14,108.41368304,11,-179
 .98744387,0|C,4,1.47,1,125.596589,2,179.98460655,0|H,23,1.07,4,109.471
 22063,1,-25.91237379,0|H,23,1.07,4,109.47122063,1,94.08764101,0|H,23,1
 .07,4,109.47122063,1,-145.91236639,0|C,22,1.47,16,109.68083032,14,-180
 .,0|H,27,1.07,22,109.47122063,16,-167.19240386,0|H,27,1.07,22,109.4712
 2063,16,-47.19238906,0|H,27,1.07,22,109.47122063,16,72.80760354,0||Ver
 sion=EM64W-G16RevA.03|State=1-A|HF=0.6828541|RMSD=3.573e-009|Dipole=0.
 20704,-0.1516461,-0.0434968|PG=C01 [X(C10H16N4)]||@


 YOU KNOW YOU'VE SPOKEN TOO LONG WHEN THE AUDIENCE STOPS LOOKING AT
 THEIR WATCHES AND STARTS SHAKING THEM.
 Job cpu time:       0 days  0 hours  0 minutes  3.0 seconds.
 Elapsed time:       0 days  0 hours  0 minutes  0.5 seconds.
 File lengths (MBytes):  RWF=      6 Int=      0 D2E=      0 Chk=      2 Scr=      1
 Normal termination of Gaussian 16 at Sun Sep 04 21:16:56 2022.
