 Entering Gaussian System, Link 0=g16
 Input=gaussianExample0.gjf
 Output=D:\ZhangCang\Work\gaussianExample0.out
 Initial command:
 C:\G16W\l1.exe ".\Gau-26372.inp" "D:\ZhangCang\Work\gaussianExample0.out" /scrdir=".\"
 Entering Link 1 = C:\G16W\l1.exe PID=     14280.
  
 Copyright (c) 1988,1990,1992,1993,1995,1998,2003,2009,2016,
            Gaussian, Inc.  All Rights Reserved.
  
 This is part of the Gaussian(R) 16 program.  It is based on
 the Gaussian(R) 09 system (copyright 2009, Gaussian, Inc.),
 the Gaussian(R) 03 system (copyright 2003, Gaussian, Inc.),
 the Gaussian(R) 98 system (copyright 1998, Gaussian, Inc.),
 the Gaussian(R) 94 system (copyright 1995, Gaussian, Inc.),
 the Gaussian 92(TM) system (copyright 1992, Gaussian, Inc.),
 the Gaussian 90(TM) system (copyright 1990, Gaussian, Inc.),
 the Gaussian 88(TM) system (copyright 1988, Gaussian, Inc.),
 the Gaussian 86(TM) system (copyright 1986, Carnegie Mellon
 University), and the Gaussian 82(TM) system (copyright 1983,
 Carnegie Mellon University). Gaussian is a federally registered
 trademark of Gaussian, Inc.
  
 This software contains proprietary and confidential information,
 including trade secrets, belonging to Gaussian, Inc.
  
 This software is provided under written license and may be
 used, copied, transmitted, or stored only in accord with that
 written license.
  
 The following legend is applicable only to US Government
 contracts under FAR:
  
                    RESTRICTED RIGHTS LEGEND
  
 Use, reproduction and disclosure by the US Government is
 subject to restrictions as set forth in subparagraphs (a)
 and (c) of the Commercial Computer Software - Restricted
 Rights clause in FAR 52.227-19.
  
 Gaussian, Inc.
 340 Quinnipiac St., Bldg. 40, Wallingford CT 06492
  
  
 ---------------------------------------------------------------
 Warning -- This program may not be used in any manner that
 competes with the business of Gaussian, Inc. or will provide
 assistance to any competitor of Gaussian, Inc.  The licensee
 of this program is prohibited from giving any competitor of
 Gaussian, Inc. access to this program.  By using this program,
 the user acknowledges that Gaussian, Inc. is engaged in the
 business of creating and licensing software in the field of
 computational chemistry and represents and warrants to the
 licensee that it is not a competitor of Gaussian, Inc. and that
 it will not use this program in any manner prohibited above.
 ---------------------------------------------------------------
  

 Cite this work as:
 Gaussian 16, Revision A.03,
 M. J. Frisch, G. W. Trucks, H. B. Schlegel, G. E. Scuseria, 
 M. A. Robb, J. R. Cheeseman, G. Scalmani, V. Barone, 
 G. A. Petersson, H. Nakatsuji, X. Li, M. Caricato, A. V. Marenich, 
 J. Bloino, B. G. Janesko, R. Gomperts, B. Mennucci, H. P. Hratchian, 
 J. V. Ortiz, A. F. Izmaylov, J. L. Sonnenberg, D. Williams-Young, 
 F. Ding, F. Lipparini, F. Egidi, J. Goings, B. Peng, A. Petrone, 
 T. Henderson, D. Ranasinghe, V. G. Zakrzewski, J. Gao, N. Rega, 
 G. Zheng, W. Liang, M. Hada, M. Ehara, K. Toyota, R. Fukuda, 
 J. Hasegawa, M. Ishida, T. Nakajima, Y. Honda, O. Kitao, H. Nakai, 
 T. Vreven, K. Throssell, J. A. Montgomery, Jr., J. E. Peralta, 
 F. Ogliaro, M. J. Bearpark, J. J. Heyd, E. N. Brothers, K. N. Kudin, 
 V. N. Staroverov, T. A. Keith, R. Kobayashi, J. Normand, 
 K. Raghavachari, A. P. Rendell, J. C. Burant, S. S. Iyengar, 
 J. Tomasi, M. Cossi, J. M. Millam, M. Klene, C. Adamo, R. Cammi, 
 J. W. Ochterski, R. L. Martin, K. Morokuma, O. Farkas, 
 J. B. Foresman, and D. J. Fox, Gaussian, Inc., Wallingford CT, 2016.
 
 ******************************************
 Gaussian 16:  EM64W-G16RevA.03 17-Dec-2016
                27-Jul-2022 
 ******************************************
 %mem=1000MB
 %chk=LiuKun1.chk
 -----
 # pm3
 -----
 1/38=1,172=1/1;
 2/12=2,17=6,18=5,40=1/2;
 3/5=2,25=1,41=800000/1,2,3;
 4/35=1/1;
 5/5=2,35=1,38=5/2;
 6/7=2,8=2,9=2,10=2,28=1/1;
 99/5=1,9=1/99;
 --
 T1
 --
 Symbolic Z-matrix:
 Charge =  0 Multiplicity = 1
 H
 N                    1    B1
 C                    2    B2       1    A1
 O                    3    B3       2    A2       1    D1       0
       Variables:
  B1                    1.08                     
  B2                    1.5                      
  B3                    1.4                      
  A1                  107.69645                  
  D1                  180.                       
  A2                  134.13593                  
 
                          Input orientation:                          
 ---------------------------------------------------------------------
 Center     Atomic      Atomic             Coordinates (Angstroms)
 Number     Number       Type             X           Y           Z
 ---------------------------------------------------------------------
      1          1           0        0.000000    0.000000    0.000000
      2          7           0        0.000000    0.000000    1.080000
      3          6           0        1.429020    0.000000    1.535961
      4          8           0        2.052374    0.000000    2.789528
 ---------------------------------------------------------------------
                    Distance matrix (angstroms):
                    1          2          3          4
     1  H    0.000000
     2  N    1.080000   0.000000
     3  C    2.097922   1.500000   0.000000
     4  O    3.463193   2.671091   1.400000   0.000000
 Stoichiometry    CHNO
 Framework group  CS[SG(CHNO)]
 Deg. of freedom     5
 Full point group                 CS      NOp   2
 Largest Abelian subgroup         CS      NOp   2
 Largest concise Abelian subgroup C1      NOp   1
                         Standard orientation:                         
 ---------------------------------------------------------------------
 Center     Atomic      Atomic             Coordinates (Angstroms)
 Number     Number       Type             X           Y           Z
 ---------------------------------------------------------------------
      1          1           0        2.094010    0.251271    0.000000
      2          7           0        1.259876   -0.434747    0.000000
      3          6           0        0.000000    0.379325    0.000000
      4          8           0       -1.364143    0.064501    0.000000
 ---------------------------------------------------------------------
 Rotational constants (GHZ):         161.7389739           8.7604308           8.3103110
 Standard basis: VSTO-6G (5D, 7F)
 There are    10 symmetry adapted cartesian basis functions of A'  symmetry.
 There are     3 symmetry adapted cartesian basis functions of A"  symmetry.
 There are    10 symmetry adapted basis functions of A'  symmetry.
 There are     3 symmetry adapted basis functions of A"  symmetry.
    13 basis functions,    78 primitive gaussians,    13 cartesian basis functions
     8 alpha electrons        8 beta electrons
       nuclear repulsion energy        43.8612672533 Hartrees.
 Integral buffers will be    131072 words long.
 Regular integral format.
 Two-electron integral symmetry is turned off.
 Do NDO integrals.
 One-electron integrals computed using PRISM.
 NBasis=    13 RedAO= T EigKep=  1.00D+00  NBF=    10     3
 NBsUse=    13 1.00D-06 EigRej= -1.00D+00 NBFU=    10     3
 Simple Huckel Guess.
 Initial guess orbital symmetries:
       Occupied  (A') (A') (A') (A') (A") (A') (A') (A")
       Virtual   (A') (A") (A') (A') (A')
 The electronic state of the initial guess is 1-A'.
 Keep J ints in memory in canonical form, NReq=859584.
 Overlap will be assumed to be unity.
 Requested convergence on RMS density matrix=1.00D-08 within 128 cycles.
 Requested convergence on MAX density matrix=1.00D-06.
 Requested convergence on             energy=1.00D-06.
 No special actions if energy rises.
 Fock symm off for IB=2 I1=    1 I=   11 J=    6 Cut=1.00D-07 Err=1.34D-02
 Fock matrix is not symmetric: symmetry in diagonalization turned off.
 SCF Done:  E(RPM3) =  0.127265546645     A.U. after   16 cycles
            NFock= 15  Conv=0.14D-08     -V/T= 1.0037

 **********************************************************************

            Population analysis using the SCF density.

 **********************************************************************

 Orbital symmetries:
       Occupied  (A') (A') (A') (A') (A") (A') (A') (A")
       Virtual   (A') (A") (A') (A') (A')
 The electronic state is 1-A'.
 Alpha  occ. eigenvalues --   -1.25132  -1.00177  -0.71656  -0.59408  -0.51234
 Alpha  occ. eigenvalues --   -0.50862  -0.42521  -0.38923
 Alpha virt. eigenvalues --   -0.08683  -0.02238   0.07397   0.13871   0.18713
          Condensed to atoms (all electrons):
               1          2          3          4
     1  H    0.894443   0.000000   0.000000   0.000000
     2  N    0.000000   5.197656   0.000000   0.000000
     3  C    0.000000   0.000000   3.645487   0.000000
     4  O    0.000000   0.000000   0.000000   6.262414
 Mulliken charges:
               1
     1  H    0.105557
     2  N   -0.197656
     3  C    0.354513
     4  O   -0.262414
 Sum of Mulliken charges =   0.00000
 Mulliken charges with hydrogens summed into heavy atoms:
               1
     2  N   -0.092099
     3  C    0.354513
     4  O   -0.262414
 Charge=              0.0000 electrons
 Dipole moment (field-independent basis, Debye):
    X=              1.7744    Y=              2.0239    Z=              0.0000  Tot=              2.6916
 N-N= 4.386126725327D+01 E-N=-4.228281083371D+01  KE=-3.438694683616D+01
 Symmetry A'   KE=-2.594695007051D+01
 Symmetry A"   KE=-8.439996765659D+00
 1|1|UNPC-DESKTOP-RNC6JTU|SP|RPM3|ZDO|C1H1N1O1|BNULK|27-Jul-2022|0||# p
 m3||T1||0,1|H|N,1,1.08|C,2,1.5,1,107.696454|O,3,1.4,2,134.13593,1,180.
 ,0||Version=EM64W-G16RevA.03|State=1-A'|HF=0.1272655|RMSD=1.407e-009|D
 ipole=0.1715464,0.,-1.0449586|PG=CS [SG(C1H1N1O1)]||@


 LAWS OF PROGRAMMING DEFINITION:  A WORKING PROGRAM
                                  IS ONE THAT HAS
                                  ONLY UNOBSERVED
                                  BUGS.
 Job cpu time:       0 days  0 hours  0 minutes  3.0 seconds.
 Elapsed time:       0 days  0 hours  0 minutes  0.4 seconds.
 File lengths (MBytes):  RWF=      6 Int=      0 D2E=      0 Chk=      2 Scr=      1
 Normal termination of Gaussian 16 at Wed Jul 27 01:01:06 2022.
