 Entering Gaussian System, Link 0=g16
 Input=Try.gjf
 Output=D:\ZhangCang\Work\Try.out
 Initial command:
 C:\G16W\l1.exe ".\Gau-13148.inp" "D:\ZhangCang\Work\Try.out" /scrdir=".\"
 Entering Link 1 = C:\G16W\l1.exe PID=     12300.
  
 Copyright (c) 1988,1990,1992,1993,1995,1998,2003,2009,2016,
            Gaussian, Inc.  All Rights Reserved.
  
 This is part of the Gaussian(R) 16 program.  It is based on
 the Gaussian(R) 09 system (copyright 2009, Gaussian, Inc.),
 the Gaussian(R) 03 system (copyright 2003, Gaussian, Inc.),
 the Gaussian(R) 98 system (copyright 1998, Gaussian, Inc.),
 the Gaussian(R) 94 system (copyright 1995, Gaussian, Inc.),
 the Gaussian 92(TM) system (copyright 1992, Gaussian, Inc.),
 the Gaussian 90(TM) system (copyright 1990, Gaussian, Inc.),
 the Gaussian 88(TM) system (copyright 1988, Gaussian, Inc.),
 the Gaussian 86(TM) system (copyright 1986, Carnegie Mellon
 University), and the Gaussian 82(TM) system (copyright 1983,
 Carnegie Mellon University). Gaussian is a federally registered
 trademark of Gaussian, Inc.
  
 This software contains proprietary and confidential information,
 including trade secrets, belonging to Gaussian, Inc.
  
 This software is provided under written license and may be
 used, copied, transmitted, or stored only in accord with that
 written license.
  
 The following legend is applicable only to US Government
 contracts under FAR:
  
                    RESTRICTED RIGHTS LEGEND
  
 Use, reproduction and disclosure by the US Government is
 subject to restrictions as set forth in subparagraphs (a)
 and (c) of the Commercial Computer Software - Restricted
 Rights clause in FAR 52.227-19.
  
 Gaussian, Inc.
 340 Quinnipiac St., Bldg. 40, Wallingford CT 06492
  
  
 ---------------------------------------------------------------
 Warning -- This program may not be used in any manner that
 competes with the business of Gaussian, Inc. or will provide
 assistance to any competitor of Gaussian, Inc.  The licensee
 of this program is prohibited from giving any competitor of
 Gaussian, Inc. access to this program.  By using this program,
 the user acknowledges that Gaussian, Inc. is engaged in the
 business of creating and licensing software in the field of
 computational chemistry and represents and warrants to the
 licensee that it is not a competitor of Gaussian, Inc. and that
 it will not use this program in any manner prohibited above.
 ---------------------------------------------------------------
  

 Cite this work as:
 Gaussian 16, Revision A.03,
 M. J. Frisch, G. W. Trucks, H. B. Schlegel, G. E. Scuseria, 
 M. A. Robb, J. R. Cheeseman, G. Scalmani, V. Barone, 
 G. A. Petersson, H. Nakatsuji, X. Li, M. Caricato, A. V. Marenich, 
 J. Bloino, B. G. Janesko, R. Gomperts, B. Mennucci, H. P. Hratchian, 
 J. V. Ortiz, A. F. Izmaylov, J. L. Sonnenberg, D. Williams-Young, 
 F. Ding, F. Lipparini, F. Egidi, J. Goings, B. Peng, A. Petrone, 
 T. Henderson, D. Ranasinghe, V. G. Zakrzewski, J. Gao, N. Rega, 
 G. Zheng, W. Liang, M. Hada, M. Ehara, K. Toyota, R. Fukuda, 
 J. Hasegawa, M. Ishida, T. Nakajima, Y. Honda, O. Kitao, H. Nakai, 
 T. Vreven, K. Throssell, J. A. Montgomery, Jr., J. E. Peralta, 
 F. Ogliaro, M. J. Bearpark, J. J. Heyd, E. N. Brothers, K. N. Kudin, 
 V. N. Staroverov, T. A. Keith, R. Kobayashi, J. Normand, 
 K. Raghavachari, A. P. Rendell, J. C. Burant, S. S. Iyengar, 
 J. Tomasi, M. Cossi, J. M. Millam, M. Klene, C. Adamo, R. Cammi, 
 J. W. Ochterski, R. L. Martin, K. Morokuma, O. Farkas, 
 J. B. Foresman, and D. J. Fox, Gaussian, Inc., Wallingford CT, 2016.
 
 ******************************************
 Gaussian 16:  EM64W-G16RevA.03 17-Dec-2016
                22-Aug-2022 
 ******************************************
 %mem=1000MB
 %chk=LiuKun1.chk
 -----
 # pm3
 -----
 1/38=1,172=1/1;
 2/12=2,17=6,18=5,40=1/2;
 3/5=2,25=1,41=800000/1,2,3;
 4/35=1/1;
 5/5=2,35=1,38=5/2;
 6/7=2,8=2,9=2,10=2,28=1/1;
 99/5=1,9=1/99;
 --
 T1
 --
 Symbolic Z-matrix:
 Charge =  0 Multiplicity = 1
 C
 H                    1    B1
 H                    1    B2       2    A1
 C                    1    B3       2    A2       3    D1       0
 H                    4    B4       1    A3       2    D2       0
 H                    4    B5       1    A4       2    D3       0
 N                    4    B6       1    A5       2    D4       0
 C                    7    B7       4    A6       1    D5       0
 C                    7    B8       4    A7       1    D6       0
 C                    8    B9       7    A8       4    D7       0
 H                    8    B10      7    A9       4    D8       0
 H                    9    B11      7    A10      4    D9       0
 H                    10   B12      8    A11      7    D10      0
 N                    1    B13      4    A12      7    D11      0
 N                    9    B14      7    A13      4    D12      0
 C                    15   B15      9    A14      7    D13      0
 H                    16   B16      15   A15      9    D14      0
 H                    16   B17      15   A16      9    D15      0
 H                    16   B18      15   A17      9    D16      0
 O                    9    B19      7    A18      4    D17      0
 O                    20   B20      9    A19      7    D18      0
 O                    20   B21      9    A20      7    D19      0
 O                    21   B22      20   A21      9    D20      0
 C                    14   B23      1    A22      4    D21      0
 C                    24   B24      14   A23      1    D22      0
 H                    25   B25      24   A24      14   D23      0
 H                    25   B26      24   A25      14   D24      0
 H                    25   B27      24   A26      14   D25      0
 O                    24   B28      14   A27      1    D26      0
 H                    14   B29      1    A28      4    D27      0
 S                    21   B30      20   A29      9    D28      0
       Variables:
  B1                    1.0883                   
  B2                    1.09112                  
  B3                    1.52818                  
  B4                    1.08938                  
  B5                    1.0904                   
  B6                    1.4634                   
  B7                    1.37956                  
  B8                    1.33091                  
  B9                    1.35702                  
  B10                   1.07733                  
  B11                   1.07792                  
  B12                   1.07709                  
  B13                   1.45047                  
  B14                   1.32844                  
  B15                   1.46143                  
  B16                   1.08816                  
  B17                   1.0872                   
  B18                   1.0886                   
  B19                   3.20718                  
  B20                   2.45511                  
  B21                   2.45044                  
  B22                   2.4528                   
  B23                   1.34449                  
  B24                   1.50275                  
  B25                   1.0913                   
  B26                   1.08893                  
  B27                   1.09127                  
  B28                   1.23743                  
  B29                   1.01041                  
  B30                   1.50161                  
  A1                  108.97658                  
  A2                  109.3685                   
  A3                  110.65653                  
  A4                  110.83431                  
  A5                  110.45539                  
  A6                  125.57494                  
  A7                  125.53084                  
  A8                  106.87252                  
  A9                  121.87948                  
  A10                 125.61314                  
  A11                 131.31613                  
  A12                 110.35581                  
  A13                 108.62316                  
  A14                 125.69876                  
  A15                 108.81296                  
  A16                 108.46522                  
  A17                 109.29642                  
  A18                 126.29555                  
  A19                 117.79481                  
  A20                  67.48415                  
  A21                  59.97829                  
  A22                 122.34775                  
  A23                 116.81421                  
  A24                 108.45148                  
  A25                 112.74478                  
  A26                 108.38975                  
  A27                 121.79776                  
  A28                 118.74627                  
  A29                  35.21078                  
  D1                  120.57909                  
  D2                   58.94234                  
  D3                 -179.76075                  
  D4                  -59.69648                  
  D5                  -61.5707                   
  D6                  112.90974                  
  D7                  176.47509                  
  D8                   -4.51843                  
  D9                    3.89298                  
  D10                 179.27003                  
  D11                -179.42318                  
  D12                -177.1817                   
  D13                 178.73163                  
  D14                 130.42054                  
  D15                  10.76806                  
  D16                -109.23918                  
  D17                 -77.14676                  
  D18                  11.71479                  
  D19                  45.61239                  
  D20                 -34.22273                  
  D21                 -79.07745                  
  D22                 177.89123                  
  D23                 120.77844                  
  D24                  -0.76516                  
  D25                -122.23085                  
  D26                  -2.65174                  
  D27                  95.69273                  
  D28                   1.10674                  
 
                          Input orientation:                          
 ---------------------------------------------------------------------
 Center     Atomic      Atomic             Coordinates (Angstroms)
 Number     Number       Type             X           Y           Z
 ---------------------------------------------------------------------
      1          6           0        0.000000    0.000000    0.000000
      2          1           0        0.000000    0.000000    1.088299
      3          1           0        1.031822    0.000000   -0.354813
      4          6           0       -0.733427   -1.241191   -0.506808
      5          1           0       -1.758373   -1.259235   -0.138137
      6          1           0       -0.743955   -1.267372   -1.596842
      7          7           0       -0.076453   -2.456331   -0.023730
      8          6           0        1.219323   -2.835188   -0.307651
      9          6           0       -0.594517   -3.323313    0.843035
     10          6           0        1.459569   -3.972483    0.392600
     11          1           0        1.839889   -2.275201   -0.987315
     12          1           0       -1.587992   -3.277599    1.258768
     13          1           0        2.332607   -4.600582    0.451022
     14          7           0       -0.660777    1.203095   -0.468828
     15          7           0        0.308259   -4.265683    1.091416
     16          6           0        0.138110   -5.388337    2.011464
     17          1           0        0.419461   -6.306780    1.500197
     18          1           0       -0.906359   -5.433780    2.309828
     19          1           0        0.769751   -5.236490    2.884976
     20          8           0       -0.801849   -2.937482    4.020162
     21          8           0       -0.345696   -0.705110    4.934491
     22          8           0       -1.504080   -0.941213    2.784662
     23          8           0        0.882295   -1.499139    2.965283
     24          6           0       -0.495535    1.674758   -1.716975
     25          6           0       -1.277623    2.903641   -2.086343
     26          1           0       -0.574475    3.686946   -2.374346
     27          1           0       -1.909277    3.260549   -1.274313
     28          1           0       -1.895952    2.670122   -2.954686
     29          8           0        0.270717    1.132090   -2.522959
     30          1           0       -1.327787    1.659041    0.137909
     31         16           0       -0.441787   -1.519554    3.676607
 ---------------------------------------------------------------------
                    Distance matrix (angstroms):
                    1          2          3          4          5
     1  C    0.000000
     2  H    1.088299   0.000000
     3  H    1.091123   1.774043   0.000000
     4  C    1.528177   2.150078   2.163276   0.000000
     5  H    2.167171   2.486301   3.068845   1.089384   0.000000
     6  H    2.170162   3.060993   2.510428   1.090398   1.776775
     7  N    2.457635   2.697409   2.715042   1.463402   2.067603
     8  C    3.101562   3.387287   2.841773   2.528581   3.373283
     9  C    3.479737   3.384969   3.888988   2.485278   2.564698
    10  C    4.250305   4.288934   4.064753   3.616369   4.242469
    11  H    3.088126   3.587465   2.495911   2.814608   3.834160
    12  H    3.853423   3.646016   4.495522   2.827454   2.460521
    13  H    5.177821   5.197358   4.848378   4.647958   5.314869
    14  N    1.450470   2.075742   2.079742   2.445661   2.716090
    15  N    4.413872   4.276808   4.561927   3.575890   3.849870
    16  C    5.753194   5.468591   5.952493   4.929513   5.026621
    17  H    6.496307   6.334120   6.602387   5.569328   5.736271
    18  H    5.973504   5.642657   6.354748   5.053825   4.913785
    19  H    6.027971   5.589400   6.163258   5.452171   5.599034
    20  O    5.043160   4.227006   5.579566   4.834826   4.585073
    21  O    4.996588   3.925542   5.511032   5.481374   5.294739
    22  O    3.301891   2.454748   4.144030   3.393769   2.951026
    23  O    3.437844   2.559089   3.645932   3.838296   4.081899
    24  C    2.449158   3.304532   2.644451   3.166047   3.563118
    25  C    3.796877   4.487962   4.094248   4.468860   4.621273
    26  H    4.422795   5.090530   4.500253   5.272523   5.555804
    27  H    3.987529   4.456282   4.486281   4.715649   4.662844
    28  H    4.410709   5.202875   4.739277   4.758354   4.836499
    29  O    2.778531   3.794219   2.561594   3.271946   3.939926
    30  H    2.129426   2.327805   2.926251   3.029896   2.962759
    31  S    4.002707   3.033737   4.553341   4.202798   4.043939
                    6          7          8          9         10
     6  H    0.000000
     7  N    2.081793   0.000000
     8  C    2.823919   1.379557   0.000000
     9  C    3.194092   1.330913   2.202807   0.000000
    10  C    4.016344   2.198047   1.357022   2.200814   0.000000
    11  H    2.839629   2.152597   1.077326   3.221033   2.220265
    12  H    3.592759   2.145700   3.245059   1.077922   3.243568
    13  H    4.976874   3.259873   2.220721   3.217631   1.077088
    14  N    2.717083   3.732419   4.457408   4.713146   5.659022
    15  N    4.162182   2.159933   2.198577   1.328443   1.378341
    16  C    5.547996   3.575572   3.614677   2.483202   2.524207
    17  H    6.028335   4.170640   3.995002   3.218865   2.785236
    18  H    5.713790   3.872911   4.257041   2.588976   3.377687
    19  H    6.175103   4.111681   4.020104   3.113037   2.878455
    20  O    5.860320   4.136516   4.777610   3.207177   4.398231
    21  O    6.567576   5.265285   5.870823   4.863837   5.879071
    22  O    4.458895   3.495822   4.535026   3.204937   4.867625
    23  O    4.848854   3.281710   3.551157   3.164257   3.615159
    24  C    2.955042   4.484262   5.026584   5.616419   6.337513
    25  C    4.233410   5.867409   6.506354   6.915406   7.805028
    26  H    5.017819   6.596460   7.072989   7.713344   8.394056
    27  H    4.686583   6.132366   6.919579   7.039814   8.151347
    28  H    4.321423   6.179126   6.857125   7.213714   8.160149
    29  O    2.764900   4.386735   4.641847   5.650589   5.997543
    30  H    3.451683   4.304446   5.185016   5.085149   6.288742
    31  S    5.288116   3.834517   4.512704   3.362441   4.518487
                   11         12         13         14         15
    11  H    0.000000
    12  H    4.219011   0.000000
    13  H    2.778306   4.215903   0.000000
    14  N    4.315171   4.890903   6.594630   0.000000
    15  N    3.260220   2.144781   2.149476   5.768963   0.000000
    16  C    4.645465   2.828638   2.805594   7.087810   1.461435
    17  H    4.945600   3.641990   2.769839   7.838507   2.084597
    18  H    5.328194   2.493685   3.826262   7.199260   2.079489
    19  H    4.990898   3.469980   2.961592   7.400180   2.091004
    20  O    5.700194   2.891193   5.032839   6.108626   3.402059
    21  O    6.504595   4.655313   6.515328   5.739022   5.279636
    22  O    5.214352   2.791790   5.792843   3.986780   4.147741
    23  O    4.140325   3.489618   4.247807   4.634249   3.390378
    24  C    4.646373   5.879996   7.216543   1.344486   6.619818
    25  C    6.143871   7.035184   8.705478   2.426667   8.000774
    26  H    6.580289   7.920329   9.225885   3.131767   8.719807
    27  H    6.692020   7.019052   9.097678   2.537848   8.195017
    28  H    6.502559   7.295437   9.074287   3.139636   8.326757
    29  O    4.053411   6.099312   6.779343   2.256585   6.496235
    30  H    5.174801   5.068968   7.258058   1.010405   6.219982
    31  S    5.246829   3.201633   5.253037   4.964414   3.845388
                   16         17         18         19         20
    16  C    0.000000
    17  H    1.088159   0.000000
    18  H    1.087199   1.781974   0.000000
    19  H    1.088600   1.784891   1.782993   0.000000
    20  O    3.305310   4.381094   3.027815   3.007326   0.000000
    21  O    5.541729   6.615024   5.437234   5.096875   2.455109
    22  O    4.803283   5.842873   4.556961   4.861047   2.450444
    23  O    4.073014   5.047187   4.371533   3.739908   2.453149
    24  C    8.011871   8.654038   8.180173   8.399063   7.367586
    25  C    9.356988  10.028720   9.432748   9.755383   8.463715
    26  H   10.104646  10.764504  10.258619  10.444861   9.210020
    27  H    9.475830  10.230088   9.457444   9.832423   8.226387
    28  H    9.681880  10.285518   9.714299  10.184406   9.016140
    29  O    7.943208   8.458410   8.237232   8.369804   7.779733
    30  H    7.438051   8.268192   7.429868   7.713261   6.039579
    31  S    4.251643   5.328794   4.171940   3.988749   1.502730
                   21         22         23         24         25
    21  O    0.000000
    22  O    2.453439   0.000000
    23  O    2.452799   2.457375   0.000000
    24  C    7.065991   5.303321   5.821991   0.000000
    25  C    7.948816   6.209740   7.040501   1.502747   0.000000
    26  H    8.530041   6.992810   7.584807   2.118317   1.091298
    27  H    7.531300   5.856131   6.958569   2.170103   1.088927
    28  H    8.719782   6.792306   7.755477   2.117509   1.091275
    29  O    7.705117   5.968193   6.117042   1.237433   2.392986
    30  H    5.436995   3.714526   4.780440   2.033098   2.549283
    31  S    1.501606   1.502835   1.503194   6.268752   7.312651
                   26         27         28         29         30
    26  H    0.000000
    27  H    1.781455   0.000000
    28  H    1.765511   1.781133   0.000000
    29  O    2.695130   3.292692   2.691910   0.000000
    30  H    3.315314   2.212991   3.302914   3.148509   0.000000
    31  S    7.983688   7.036655   7.977595   6.780376   4.838475
                   31
    31  S    0.000000
 Stoichiometry    C8H14N3O5S
 Framework group  C1[X(C8H14N3O5S)]
 Deg. of freedom    87
 Full point group                 C1      NOp   1
 Largest Abelian subgroup         C1      NOp   1
 Largest concise Abelian subgroup C1      NOp   1
                         Standard orientation:                         
 ---------------------------------------------------------------------
 Center     Atomic      Atomic             Coordinates (Angstroms)
 Number     Number       Type             X           Y           Z
 ---------------------------------------------------------------------
      1          6           0        1.743793    0.085037    0.374289
      2          1           0        0.987785    0.850380    0.538900
      3          1           0        1.912010   -0.454128    1.307859
      4          6           0        1.263639   -0.876215   -0.712344
      5          1           0        1.072367   -0.341020   -1.641720
      6          1           0        2.002923   -1.656923   -0.893792
      7          7           0        0.009016   -1.514619   -0.312459
      8          6           0       -0.163038   -2.325486    0.790297
      9          6           0       -1.173973   -1.325938   -0.892342
     10          6           0       -1.481232   -2.643335    0.843642
     11          1           0        0.662604   -2.611884    1.420314
     12          1           0       -1.354717   -0.724836   -1.768654
     13          1           0       -2.037326   -3.257584    1.531811
     14          7           0        2.980189    0.726662   -0.030070
     15          7           0       -2.089086   -2.020222   -0.225034
     16          6           0       -3.518365   -2.058734   -0.527471
     17          1           0       -3.841523   -3.097169   -0.563695
     18          1           0       -3.678914   -1.585399   -1.492965
     19          1           0       -4.064457   -1.522566    0.246711
     20          8           0       -3.089309    1.218583   -0.514339
     21          8           0       -2.162206    3.191678    0.614792
     22          8           0       -0.749813    1.850771   -0.877347
     23          8           0       -1.455382    0.943484    1.294678
     24          6           0        4.172095    0.110602    0.056376
     25          6           0        5.367047    0.873069   -0.442606
     26          1           0        6.074095    0.984790    0.381125
     27          1           0        5.106167    1.854563   -0.835507
     28          1           0        5.850117    0.283451   -1.223551
     29          8           0        4.285688   -1.025759    0.532842
     30          1           0        2.935446    1.638400   -0.463257
     31         16           0       -1.863691    1.802071    0.130331
 ---------------------------------------------------------------------
 Rotational constants (GHZ):           0.5825512           0.2596851           0.1954362
 Standard basis: VSTO-6G (5D, 7F)
 The combination of multiplicity 1 and    97 electrons is impossible.
 Error termination via Lnk1e in C:\G16W\l301.exe at Mon Aug 22 18:19:37 2022.
 Job cpu time:       0 days  0 hours  0 minutes  1.0 seconds.
 Elapsed time:       0 days  0 hours  0 minutes  0.2 seconds.
 File lengths (MBytes):  RWF=      6 Int=      0 D2E=      0 Chk=      2 Scr=      1
