 Entering Gaussian System, Link 0=g16
 Input=C2H6_Eclipsed.gjf
 Output=D:\ZhangCang\Work\C2H6_Eclipsed.out
 Initial command:
 C:\G16W\l1.exe ".\Gau-18308.inp" "D:\ZhangCang\Work\C2H6_Eclipsed.out" /scrdir=".\"
 Entering Link 1 = C:\G16W\l1.exe PID=     11812.
  
 Copyright (c) 1988,1990,1992,1993,1995,1998,2003,2009,2016,
            Gaussian, Inc.  All Rights Reserved.
  
 This is part of the Gaussian(R) 16 program.  It is based on
 the Gaussian(R) 09 system (copyright 2009, Gaussian, Inc.),
 the Gaussian(R) 03 system (copyright 2003, Gaussian, Inc.),
 the Gaussian(R) 98 system (copyright 1998, Gaussian, Inc.),
 the Gaussian(R) 94 system (copyright 1995, Gaussian, Inc.),
 the Gaussian 92(TM) system (copyright 1992, Gaussian, Inc.),
 the Gaussian 90(TM) system (copyright 1990, Gaussian, Inc.),
 the Gaussian 88(TM) system (copyright 1988, Gaussian, Inc.),
 the Gaussian 86(TM) system (copyright 1986, Carnegie Mellon
 University), and the Gaussian 82(TM) system (copyright 1983,
 Carnegie Mellon University). Gaussian is a federally registered
 trademark of Gaussian, Inc.
  
 This software contains proprietary and confidential information,
 including trade secrets, belonging to Gaussian, Inc.
  
 This software is provided under written license and may be
 used, copied, transmitted, or stored only in accord with that
 written license.
  
 The following legend is applicable only to US Government
 contracts under FAR:
  
                    RESTRICTED RIGHTS LEGEND
  
 Use, reproduction and disclosure by the US Government is
 subject to restrictions as set forth in subparagraphs (a)
 and (c) of the Commercial Computer Software - Restricted
 Rights clause in FAR 52.227-19.
  
 Gaussian, Inc.
 340 Quinnipiac St., Bldg. 40, Wallingford CT 06492
  
  
 ---------------------------------------------------------------
 Warning -- This program may not be used in any manner that
 competes with the business of Gaussian, Inc. or will provide
 assistance to any competitor of Gaussian, Inc.  The licensee
 of this program is prohibited from giving any competitor of
 Gaussian, Inc. access to this program.  By using this program,
 the user acknowledges that Gaussian, Inc. is engaged in the
 business of creating and licensing software in the field of
 computational chemistry and represents and warrants to the
 licensee that it is not a competitor of Gaussian, Inc. and that
 it will not use this program in any manner prohibited above.
 ---------------------------------------------------------------
  

 Cite this work as:
 Gaussian 16, Revision A.03,
 M. J. Frisch, G. W. Trucks, H. B. Schlegel, G. E. Scuseria, 
 M. A. Robb, J. R. Cheeseman, G. Scalmani, V. Barone, 
 G. A. Petersson, H. Nakatsuji, X. Li, M. Caricato, A. V. Marenich, 
 J. Bloino, B. G. Janesko, R. Gomperts, B. Mennucci, H. P. Hratchian, 
 J. V. Ortiz, A. F. Izmaylov, J. L. Sonnenberg, D. Williams-Young, 
 F. Ding, F. Lipparini, F. Egidi, J. Goings, B. Peng, A. Petrone, 
 T. Henderson, D. Ranasinghe, V. G. Zakrzewski, J. Gao, N. Rega, 
 G. Zheng, W. Liang, M. Hada, M. Ehara, K. Toyota, R. Fukuda, 
 J. Hasegawa, M. Ishida, T. Nakajima, Y. Honda, O. Kitao, H. Nakai, 
 T. Vreven, K. Throssell, J. A. Montgomery, Jr., J. E. Peralta, 
 F. Ogliaro, M. J. Bearpark, J. J. Heyd, E. N. Brothers, K. N. Kudin, 
 V. N. Staroverov, T. A. Keith, R. Kobayashi, J. Normand, 
 K. Raghavachari, A. P. Rendell, J. C. Burant, S. S. Iyengar, 
 J. Tomasi, M. Cossi, J. M. Millam, M. Klene, C. Adamo, R. Cammi, 
 J. W. Ochterski, R. L. Martin, K. Morokuma, O. Farkas, 
 J. B. Foresman, and D. J. Fox, Gaussian, Inc., Wallingford CT, 2016.
 
 ******************************************
 Gaussian 16:  EM64W-G16RevA.03 17-Dec-2016
                19-Sep-2022 
 ******************************************
 %chk=C2H6.chk
 ----------
 # hf/3-21g
 ----------
 1/38=1,172=1/1;
 2/12=2,17=6,18=5,40=1/2;
 3/5=5,11=9,25=1,30=1/1,2,3;
 4//1;
 5/5=2,38=5/2;
 6/7=2,8=2,9=2,10=2,28=1/1;
 99/5=1,9=1/99;
 -------------------
 Title Card Required
 -------------------
 Symbolic Z-matrix:
 Charge =  0 Multiplicity = 1
 C
 H                    1    B1
 H                    1    B2       2    A1
 H                    1    B3       2    A2       3    D1       0
 C                    1    B4       4    A3       3    D2       0
 H                    5    B5       1    A4       4    D3       0
 H                    5    B6       1    A5       4    D4       0
 H                    5    B7       1    A6       4    D5       0
       Variables:
  B1                    1.07                     
  B2                    1.07                     
  B3                    1.07                     
  B4                    1.54                     
  B5                    1.07                     
  B6                    1.07                     
  B7                    1.07                     
  A1                  109.47125                  
  A2                  109.47127                  
  A3                  109.47127                  
  A4                  109.47124                  
  A5                  109.47115                  
  A6                  109.47125                  
  D1                  120.00001                  
  D2                  119.99992                  
  D3                 -119.99995                  
  D4                    0.                       
  D5                  119.99993                  
 
     6 tetrahedral angles replaced.
    6 tetrahedral angles replaced.
                          Input orientation:                          
 ---------------------------------------------------------------------
 Center     Atomic      Atomic             Coordinates (Angstroms)
 Number     Number       Type             X           Y           Z
 ---------------------------------------------------------------------
      1          6           0        0.000000    0.000000    0.000000
      2          1           0        0.000000    0.000000    1.070000
      3          1           0        1.008806    0.000000   -0.356667
      4          1           0       -0.504403   -0.873651   -0.356666
      5          6           0       -0.725962    1.257405   -0.513335
      6          1           0       -0.053424    1.839838   -1.107780
      7          1           0       -1.566634    0.966188   -1.107781
      8          1           0       -1.062232    1.839839    0.318886
 ---------------------------------------------------------------------
                    Distance matrix (angstroms):
                    1          2          3          4          5
     1  C    0.000000
     2  H    1.070000   0.000000
     3  H    1.070001   1.747303   0.000000
     4  H    1.069999   1.747302   1.747303   0.000000
     5  C    1.540000   2.148264   2.148263   2.148263   0.000000
     6  H    2.148263   2.851418   2.253333   2.851416   1.070000
     7  H    2.148264   2.851419   2.851418   2.253334   1.070001
     8  H    2.148263   2.253335   2.851417   2.851416   1.069999
                    6          7          8
     6  H    0.000000
     7  H    1.747303   0.000000
     8  H    1.747303   1.747302   0.000000
 This structure is nearly, but not quite of a higher symmetry.
 Consider Symm=Loose if the higher symmetry is desired.
 Stoichiometry    C2H6
 Framework group  C1[X(C2H6)]
 Deg. of freedom    18
 Full point group                 C1      NOp   1
 Largest Abelian subgroup         C1      NOp   1
 Largest concise Abelian subgroup C1      NOp   1
                         Standard orientation:                         
 ---------------------------------------------------------------------
 Center     Atomic      Atomic             Coordinates (Angstroms)
 Number     Number       Type             X           Y           Z
 ---------------------------------------------------------------------
      1          6           0       -0.451347   -0.196243   -0.592178
      2          1           0        0.006291   -0.992802   -1.140778
      3          1           0       -0.584319    0.648974   -1.234695
      4          1           0       -1.403210   -0.517601   -0.223958
      5          6           0        0.451347    0.196243    0.592178
      6          1           0        0.736506    1.223260    0.498258
      7          1           0       -0.082385    0.056686    1.508996
      8          1           0        1.327116   -0.418515    0.592177
 ---------------------------------------------------------------------
 Rotational constants (GHZ):          82.1231902          20.2293771          20.2293742
 Standard basis: 3-21G (6D, 7F)
 There are    30 symmetry adapted cartesian basis functions of A   symmetry.
 There are    30 symmetry adapted basis functions of A   symmetry.
    30 basis functions,    48 primitive gaussians,    30 cartesian basis functions
     9 alpha electrons        9 beta electrons
       nuclear repulsion energy        42.6774237875 Hartrees.
 NAtoms=    8 NActive=    8 NUniq=    8 SFac= 1.00D+00 NAtFMM=   60 NAOKFM=F Big=F
 Integral buffers will be    131072 words long.
 Raffenetti 1 integral format.
 Two-electron integral symmetry is turned on.
 One-electron integrals computed using PRISM.
 NBasis=    30 RedAO= T EigKep=  1.72D-02  NBF=    30
 NBsUse=    30 1.00D-06 EigRej= -1.00D+00 NBFU=    30
 ExpMin= 1.83D-01 ExpMax= 1.72D+02 ExpMxC= 1.72D+02 IAcc=3 IRadAn=         5 AccDes= 0.00D+00
 Harris functional with IExCor=  205 and IRadAn=       5 diagonalized for initial guess.
 HarFok:  IExCor=  205 AccDes= 0.00D+00 IRadAn=         5 IDoV= 1 UseB2=F ITyADJ=14
 ICtDFT=  3500011 ScaDFX=  1.000000  1.000000  1.000000  1.000000
 FoFCou: FMM=F IPFlag=           0 FMFlag=      100000 FMFlg1=           0
         NFxFlg=           0 DoJE=T BraDBF=F KetDBF=T FulRan=T
         wScrn=  0.000000 ICntrl=       500 IOpCl=  0 I1Cent=   200000004 NGrid=           0
         NMat0=    1 NMatS0=      1 NMatT0=    0 NMatD0=    1 NMtDS0=    0 NMtDT0=    0
 Petite list used in FoFCou.
 Keep R1 ints in memory in canonical form, NReq=918639.
 Requested convergence on RMS density matrix=1.00D-08 within 128 cycles.
 Requested convergence on MAX density matrix=1.00D-06.
 Requested convergence on             energy=1.00D-06.
 No special actions if energy rises.
 SCF Done:  E(RHF) =  -78.7875097931     A.U. after    9 cycles
            NFock=  9  Conv=0.24D-09     -V/T= 1.9999

 **********************************************************************

            Population analysis using the SCF density.

 **********************************************************************

 Orbital symmetries:
       Occupied  (A) (A) (A) (A) (A) (A) (A) (A) (A)
       Virtual   (A) (A) (A) (A) (A) (A) (A) (A) (A) (A) (A) (A)
                 (A) (A) (A) (A) (A) (A) (A) (A) (A)
 The electronic state is 1-A.
 Alpha  occ. eigenvalues --  -11.14377 -11.14347  -1.02383  -0.84670  -0.60743
 Alpha  occ. eigenvalues --   -0.60743  -0.49502  -0.48927  -0.48927
 Alpha virt. eigenvalues --    0.27845   0.30813   0.30813   0.35280   0.42590
 Alpha virt. eigenvalues --    0.43160   0.43160   0.90687   0.90687   0.96203
 Alpha virt. eigenvalues --    1.08264   1.10516   1.10516   1.30930   1.35833
 Alpha virt. eigenvalues --    1.35833   1.38842   1.38842   1.46701   1.93025
 Alpha virt. eigenvalues --    2.34913
          Condensed to atoms (all electrons):
               1          2          3          4          5          6
     1  C    5.389111   0.383054   0.383054   0.383054   0.213021  -0.044726
     2  H    0.383054   0.507821  -0.025395  -0.025395  -0.044726   0.002369
     3  H    0.383054  -0.025395   0.507821  -0.025395  -0.044726  -0.005803
     4  H    0.383054  -0.025395  -0.025395   0.507821  -0.044726   0.002369
     5  C    0.213021  -0.044726  -0.044726  -0.044726   5.389111   0.383054
     6  H   -0.044726   0.002369  -0.005803   0.002369   0.383054   0.507821
     7  H   -0.044726   0.002369   0.002369  -0.005803   0.383054  -0.025395
     8  H   -0.044726  -0.005803   0.002369   0.002370   0.383054  -0.025395
               7          8
     1  C   -0.044726  -0.044726
     2  H    0.002369  -0.005803
     3  H    0.002369   0.002369
     4  H   -0.005803   0.002370
     5  C    0.383054   0.383054
     6  H   -0.025395  -0.025395
     7  H    0.507822  -0.025395
     8  H   -0.025395   0.507821
 Mulliken charges:
               1
     1  C   -0.617116
     2  H    0.205705
     3  H    0.205705
     4  H    0.205706
     5  C   -0.617116
     6  H    0.205705
     7  H    0.205705
     8  H    0.205706
 Sum of Mulliken charges =   0.00000
 Mulliken charges with hydrogens summed into heavy atoms:
               1
     1  C    0.000000
     5  C    0.000000
 Electronic spatial extent (au):  <R**2>=            108.1774
 Charge=              0.0000 electrons
 Dipole moment (field-independent basis, Debye):
    X=              0.0000    Y=              0.0000    Z=              0.0000  Tot=              0.0000
 Quadrupole moment (field-independent basis, Debye-Ang):
   XX=            -15.1483   YY=            -14.8945   ZZ=            -15.3742
   XY=             -0.1361   XZ=             -0.4107   YZ=             -0.1786
 Traceless Quadrupole moment (field-independent basis, Debye-Ang):
   XX=             -0.0093   YY=              0.2445   ZZ=             -0.2352
   XY=             -0.1361   XZ=             -0.4107   YZ=             -0.1786
 Octapole moment (field-independent basis, Debye-Ang**2):
  XXX=             -0.1685  YYY=              0.6807  ZZZ=              0.2902  XYY=              0.5354
  XXY=             -0.6489  XXZ=              0.3435  XZZ=             -0.3669  YZZ=             -0.0318
  YYZ=             -0.6337  XYZ=              0.3172
 Hexadecapole moment (field-independent basis, Debye-Ang**3):
 XXXX=            -47.6119 YYYY=            -30.8230 ZZZZ=            -63.4421 XXXY=             -4.6435
 XXXZ=            -14.0120 YYYX=             -4.3580 YYYZ=             -5.7177 ZZZX=            -14.7784
 ZZZY=             -6.4256 XXYY=            -13.0858 XXZZ=            -19.3680 YYZZ=            -15.5696
 XXYZ=             -2.3387 YYXZ=             -4.5174 ZZXY=             -2.0365
 N-N= 4.267742378753D+01 E-N=-2.680367362057D+02  KE= 7.879925915922D+01
 1|1|UNPC-DESKTOP-RNC6JTU|SP|RHF|3-21G|C2H6|BNULK|19-Sep-2022|0||# hf/3
 -21g||Title Card Required||0,1|C|H,1,1.06999997|H,1,1.07000059,2,109.4
 7122063|H,1,1.06999938,2,109.47122063,3,120.00000804,0|C,1,1.54000047,
 4,109.47122063,3,119.99992291,0|H,5,1.06999973,1,109.47122063,4,-119.9
 9994731,0|H,5,1.070001,1,109.47122063,4,0.,0|H,5,1.069999,1,109.471220
 63,4,119.99992968,0||Version=EM64W-G16RevA.03|State=1-A|HF=-78.7875098
 |RMSD=2.403e-010|Dipole=-0.0000002,0.,0.0000001|Quadrupole=0.075261,-0
 .2257843,0.1505233,0.2607125,-0.1064373,0.1843507|PG=C01 [X(C2H6)]||@


 A MUSTACHE HAIR ACROSS A CHIP IS LIKE A REDWOOD
 TREE FALLING THROUGH A HOUSING PROJECT.
 - AN IBM MANAGER IN EAST FISHKILL, NEW YORK
   AS QUOTED IN "FROM SANDS TO CIRCUITS", IBM INNOVATION JANUARY 1985.
 Job cpu time:       0 days  0 hours  0 minutes  2.0 seconds.
 Elapsed time:       0 days  0 hours  0 minutes  0.9 seconds.
 File lengths (MBytes):  RWF=      6 Int=      0 D2E=      0 Chk=      1 Scr=      1
 Normal termination of Gaussian 16 at Mon Sep 19 01:53:19 2022.
