 Entering Gaussian System, Link 0=g16
 Input=Try.gjf
 Output=D:\ZhangCang\Work\Try.out
 Initial command:
 C:\G16W\l1.exe ".\Gau-1528.inp" "D:\ZhangCang\Work\Try.out" /scrdir=".\"
 Entering Link 1 = C:\G16W\l1.exe PID=     17432.
  
 Copyright (c) 1988,1990,1992,1993,1995,1998,2003,2009,2016,
            Gaussian, Inc.  All Rights Reserved.
  
 This is part of the Gaussian(R) 16 program.  It is based on
 the Gaussian(R) 09 system (copyright 2009, Gaussian, Inc.),
 the Gaussian(R) 03 system (copyright 2003, Gaussian, Inc.),
 the Gaussian(R) 98 system (copyright 1998, Gaussian, Inc.),
 the Gaussian(R) 94 system (copyright 1995, Gaussian, Inc.),
 the Gaussian 92(TM) system (copyright 1992, Gaussian, Inc.),
 the Gaussian 90(TM) system (copyright 1990, Gaussian, Inc.),
 the Gaussian 88(TM) system (copyright 1988, Gaussian, Inc.),
 the Gaussian 86(TM) system (copyright 1986, Carnegie Mellon
 University), and the Gaussian 82(TM) system (copyright 1983,
 Carnegie Mellon University). Gaussian is a federally registered
 trademark of Gaussian, Inc.
  
 This software contains proprietary and confidential information,
 including trade secrets, belonging to Gaussian, Inc.
  
 This software is provided under written license and may be
 used, copied, transmitted, or stored only in accord with that
 written license.
  
 The following legend is applicable only to US Government
 contracts under FAR:
  
                    RESTRICTED RIGHTS LEGEND
  
 Use, reproduction and disclosure by the US Government is
 subject to restrictions as set forth in subparagraphs (a)
 and (c) of the Commercial Computer Software - Restricted
 Rights clause in FAR 52.227-19.
  
 Gaussian, Inc.
 340 Quinnipiac St., Bldg. 40, Wallingford CT 06492
  
  
 ---------------------------------------------------------------
 Warning -- This program may not be used in any manner that
 competes with the business of Gaussian, Inc. or will provide
 assistance to any competitor of Gaussian, Inc.  The licensee
 of this program is prohibited from giving any competitor of
 Gaussian, Inc. access to this program.  By using this program,
 the user acknowledges that Gaussian, Inc. is engaged in the
 business of creating and licensing software in the field of
 computational chemistry and represents and warrants to the
 licensee that it is not a competitor of Gaussian, Inc. and that
 it will not use this program in any manner prohibited above.
 ---------------------------------------------------------------
  

 Cite this work as:
 Gaussian 16, Revision A.03,
 M. J. Frisch, G. W. Trucks, H. B. Schlegel, G. E. Scuseria, 
 M. A. Robb, J. R. Cheeseman, G. Scalmani, V. Barone, 
 G. A. Petersson, H. Nakatsuji, X. Li, M. Caricato, A. V. Marenich, 
 J. Bloino, B. G. Janesko, R. Gomperts, B. Mennucci, H. P. Hratchian, 
 J. V. Ortiz, A. F. Izmaylov, J. L. Sonnenberg, D. Williams-Young, 
 F. Ding, F. Lipparini, F. Egidi, J. Goings, B. Peng, A. Petrone, 
 T. Henderson, D. Ranasinghe, V. G. Zakrzewski, J. Gao, N. Rega, 
 G. Zheng, W. Liang, M. Hada, M. Ehara, K. Toyota, R. Fukuda, 
 J. Hasegawa, M. Ishida, T. Nakajima, Y. Honda, O. Kitao, H. Nakai, 
 T. Vreven, K. Throssell, J. A. Montgomery, Jr., J. E. Peralta, 
 F. Ogliaro, M. J. Bearpark, J. J. Heyd, E. N. Brothers, K. N. Kudin, 
 V. N. Staroverov, T. A. Keith, R. Kobayashi, J. Normand, 
 K. Raghavachari, A. P. Rendell, J. C. Burant, S. S. Iyengar, 
 J. Tomasi, M. Cossi, J. M. Millam, M. Klene, C. Adamo, R. Cammi, 
 J. W. Ochterski, R. L. Martin, K. Morokuma, O. Farkas, 
 J. B. Foresman, and D. J. Fox, Gaussian, Inc., Wallingford CT, 2016.
 
 ******************************************
 Gaussian 16:  EM64W-G16RevA.03 17-Dec-2016
                31-Jul-2022 
 ******************************************
 %mem=1000MB
 %chk=LiuKun1.chk
 -----
 # pm3
 -----
 1/38=1,172=1/1;
 2/12=2,17=6,18=5,40=1/2;
 3/5=2,25=1,41=800000/1,2,3;
 4/35=1/1;
 5/5=2,35=1,38=5/2;
 6/7=2,8=2,9=2,10=2,28=1/1;
 99/5=1,9=1/99;
 --
 T1
 --
 Symbolic Z-matrix:
 Charge =  0 Multiplicity = 1
 C
 H                    1    B1
 H                    2    B2       1    A1
 H                    3    B3       2    A2       1    D1       0
 C                    4    B4       1    A3       3    D2       0
 H                    5    B5       1    A4       4    D3       0
 H                    5    B6       1    A5       4    D4       0
 H                    5    B7       1    A6       4    D5       0
       Variables:
  B1                    1.07                     
  B2                    1.7473                   
  B3                    1.7473                   
  B4                    2.14826                  
  B5                    1.07                     
  B6                    1.07                     
  B7                    1.07                     
  A1                   35.26439                  
  A2                   60.                       
  A3                   42.52099                  
  A4                  109.47124                  
  A5                  109.47115                  
  A6                  109.47125                  
  D1                  -35.26436                  
  D2                 -119.99992                  
  D3                  -60.11096                  
  D4                   59.88899                  
  D5                  179.88892                  
 
     3 tetrahedral angles replaced.
    3 tetrahedral angles replaced.
                          Input orientation:                          
 ---------------------------------------------------------------------
 Center     Atomic      Atomic             Coordinates (Angstroms)
 Number     Number       Type             X           Y           Z
 ---------------------------------------------------------------------
      1          6           0        0.000000    0.000000    0.000000
      2          1           0        0.000000    0.000000    1.070000
      3          1           0        1.008806    0.000000   -0.356667
      4          1           0       -0.504403   -0.873650   -0.356667
      5          6           0       -0.725961    1.257406   -0.513333
      6          1           0       -0.724269    1.258385   -1.583331
      7          1           0       -1.735331    1.256430   -0.158264
      8          1           0       -0.222689    2.131055   -0.155069
 ---------------------------------------------------------------------
                    Distance matrix (angstroms):
                    1          2          3          4          5
     1  C    0.000000
     2  H    1.070000   0.000000
     3  H    1.070001   1.747303   0.000000
     4  H    1.069999   1.747303   1.747302   0.000000
     5  C    1.540000   2.148263   2.148263   2.148263   0.000000
     6  H    2.148263   3.024609   2.468154   2.469538   1.070000
     7  H    2.148264   2.469539   3.024611   2.468156   1.070001
     8  H    2.148263   2.468153   2.469538   3.024609   1.069999
                    6          7          8
     6  H    0.000000
     7  H    1.747303   0.000000
     8  H    1.747303   1.747302   0.000000
 This structure is nearly, but not quite of a higher symmetry.
 Consider Symm=Loose if the higher symmetry is desired.
 Stoichiometry    C2H6
 Framework group  C1[X(C2H6)]
 Deg. of freedom    18
 Full point group                 C1      NOp   1
 Largest Abelian subgroup         C1      NOp   1
 Largest concise Abelian subgroup C1      NOp   1
                         Standard orientation:                         
 ---------------------------------------------------------------------
 Center     Atomic      Atomic             Coordinates (Angstroms)
 Number     Number       Type             X           Y           Z
 ---------------------------------------------------------------------
      1          6           0        0.753301   -0.043901    0.153330
      2          1           0        1.146366    0.941098    0.295375
      3          1           0        1.257044   -0.514341   -0.665102
      4          1           0        0.903289   -0.619467    1.042783
      5          6           0       -0.753301    0.043901   -0.153330
      6          1           0       -1.145970   -0.940978   -0.297286
      7          1           0       -1.257317    0.512593    0.665936
      8          1           0       -0.903413    0.621095   -1.041706
 ---------------------------------------------------------------------
 Rotational constants (GHZ):          82.1231833          20.2293784          20.2293754
 Standard basis: VSTO-6G (5D, 7F)
 There are    14 symmetry adapted cartesian basis functions of A   symmetry.
 There are    14 symmetry adapted basis functions of A   symmetry.
    14 basis functions,    84 primitive gaussians,    14 cartesian basis functions
     7 alpha electrons        7 beta electrons
       nuclear repulsion energy        34.0481633550 Hartrees.
 Integral buffers will be    131072 words long.
 Regular integral format.
 Two-electron integral symmetry is turned off.
 Do NDO integrals.
 One-electron integrals computed using PRISM.
 NBasis=    14 RedAO= F EigKep=  0.00D+00  NBF=    14
 NBsUse=    14 1.00D-04 EigRej=  0.00D+00 NBFU=    14
 Simple Huckel Guess.
 Keep J ints in memory in canonical form, NReq=859572.
 Overlap will be assumed to be unity.
 Requested convergence on RMS density matrix=1.00D-08 within 128 cycles.
 Requested convergence on MAX density matrix=1.00D-06.
 Requested convergence on             energy=1.00D-06.
 No special actions if energy rises.
 SCF Done:  E(RPM3) = -0.248366401660E-01 A.U. after   10 cycles
            NFock=  9  Conv=0.29D-08     -V/T= 0.9986

 **********************************************************************

            Population analysis using the SCF density.

 **********************************************************************

 Orbital symmetries:
       Occupied  (A) (A) (A) (A) (A) (A) (A)
       Virtual   (A) (A) (A) (A) (A) (A) (A)
 The electronic state is 1-A.
 Alpha  occ. eigenvalues --   -1.27010  -0.85223  -0.56375  -0.56374  -0.49355
 Alpha  occ. eigenvalues --   -0.44915  -0.44915
 Alpha virt. eigenvalues --    0.14472   0.15682   0.15682   0.16168   0.17341
 Alpha virt. eigenvalues --    0.18482   0.18482
          Condensed to atoms (all electrons):
               1          2          3          4          5          6
     1  C    4.108285   0.000000   0.000000   0.000000   0.000000   0.000000
     2  H    0.000000   0.963905   0.000000   0.000000   0.000000   0.000000
     3  H    0.000000   0.000000   0.963905   0.000000   0.000000   0.000000
     4  H    0.000000   0.000000   0.000000   0.963905   0.000000   0.000000
     5  C    0.000000   0.000000   0.000000   0.000000   4.108285   0.000000
     6  H    0.000000   0.000000   0.000000   0.000000   0.000000   0.963905
     7  H    0.000000   0.000000   0.000000   0.000000   0.000000   0.000000
     8  H    0.000000   0.000000   0.000000   0.000000   0.000000   0.000000
               7          8
     1  C    0.000000   0.000000
     2  H    0.000000   0.000000
     3  H    0.000000   0.000000
     4  H    0.000000   0.000000
     5  C    0.000000   0.000000
     6  H    0.000000   0.000000
     7  H    0.963905   0.000000
     8  H    0.000000   0.963905
 Mulliken charges:
               1
     1  C   -0.108285
     2  H    0.036095
     3  H    0.036095
     4  H    0.036095
     5  C   -0.108285
     6  H    0.036095
     7  H    0.036095
     8  H    0.036095
 Sum of Mulliken charges =   0.00000
 Mulliken charges with hydrogens summed into heavy atoms:
               1
     1  C    0.000000
     5  C    0.000000
 Charge=              0.0000 electrons
 Dipole moment (field-independent basis, Debye):
    X=              0.0000    Y=              0.0000    Z=              0.0000  Tot=              0.0000
 N-N= 3.404816335504D+01 E-N=-4.144455460387D+01  KE=-1.741810407922D+01
 1|1|UNPC-DESKTOP-RNC6JTU|SP|RPM3|ZDO|C2H6|BNULK|31-Jul-2022|0||# pm3||
 T1||0,1|C|H,1,1.06999997|H,2,1.74730342,1,35.26438877|H,3,1.74730231,2
 ,59.99999504,1,-35.26436036,0|C,4,2.14826348,1,42.52098916,3,-119.9999
 2291,0|H,5,1.06999973,1,109.47122063,4,-60.11095667,0|H,5,1.070001,1,1
 09.47122063,4,59.88898893,0|H,5,1.069999,1,109.47122063,4,179.88892032
 ,0||Version=EM64W-G16RevA.03|State=1-A|HF=-0.0248366|RMSD=2.886e-009|D
 ipole=0.,0.,0.|PG=C01 [X(C2H6)]||@


 OUR LITTLE SYSTEMS HAVE THEIR DAY,    
   THEY HAVE THEIR DAY AND CEASE TO BE.
   THEY ARE BUT BROKEN LIGHTS OF THEE, 
 AND THOU, OH LORD, ART MORE THAN THEY.
          -------------------          
 LET KNOWLEDGE GROW FROM MORE TO MORE, 
   BUT MORE OF REVERENCE IN US DWELL.  
   THAT MIND AND SOUL, ACCORDING WELL, 
 MAY MAKE ONE MUSIC AS BEFORE.....     
          -------------------          
                    LORD TENNYSON      
 Job cpu time:       0 days  0 hours  0 minutes  4.0 seconds.
 Elapsed time:       0 days  0 hours  0 minutes  0.4 seconds.
 File lengths (MBytes):  RWF=      6 Int=      0 D2E=      0 Chk=      2 Scr=      1
 Normal termination of Gaussian 16 at Sun Jul 31 19:36:55 2022.
